
                                 *****************
                                 * O   R   C   A *
                                 *****************

           --- An Ab Initio, DFT and Semiempirical electronic structure package ---

                  #######################################################
                  #                        -***-                        #
                  #          Department of theory and spectroscopy      #
                  #               Directorship: Frank Neese             #
                  #        Max Planck Institute fuer Kohlenforschung    #
                  #                Kaiser Wilhelm Platz 1               #
                  #                 D-45470 Muelheim/Ruhr               #
                  #                      Germany                        #
                  #                                                     #
                  #                  All rights reserved                #
                  #                        -***-                        #
                  #######################################################


                         Program Version 4.2.1 -  RELEASE  -


 With contributions from (in alphabetic order):
   Daniel Aravena         : Magnetic Suceptibility
   Michael Atanasov       : Ab Initio Ligand Field Theory (pilot matlab implementation)
   Alexander A. Auer      : GIAO ZORA, VPT2
   Ute Becker             : Parallelization
   Giovanni Bistoni       : ED, misc. LED, open-shell LED, HFLD
   Martin Brehm           : Molecular dynamics
   Dmytro Bykov           : SCF Hessian
   Vijay G. Chilkuri      : MRCI spin determinant printing, contributions to CSF-ICE
   Dipayan Datta          : RHF DLPNO-CCSD density
   Achintya Kumar Dutta   : EOM-CC, STEOM-CC
   Dmitry Ganyushin       : Spin-Orbit,Spin-Spin,Magnetic field MRCI
   Miquel Garcia          : C-PCM Hessian, Gaussian charge scheme
   Yang Guo               : DLPNO-NEVPT2, CIM, IAO-localization
   Andreas Hansen         : Spin unrestricted coupled pair/coupled cluster methods
   Benjamin Helmich-Paris : CASSCF linear response (MC-RPA)
   Lee Huntington         : MR-EOM, pCC
   Robert Izsak           : Overlap fitted RIJCOSX, COSX-SCS-MP3, EOM
   Christian Kollmar      : KDIIS, OOCD, Brueckner-CCSD(T), CCSD density
   Simone Kossmann        : Meta GGA functionals, TD-DFT gradient, OOMP2, MP2 Hessian
   Martin Krupicka        : AUTO-CI
   Lucas Lang             : DCDCAS
   Dagmar Lenk            : GEPOL surface, SMD
   Dimitrios Liakos       : Extrapolation schemes; Compound Job, initial MDCI parallelization
   Dimitrios Manganas     : Further ROCIS development; embedding schemes
   Dimitrios Pantazis     : SARC Basis sets
   Taras Petrenko         : DFT Hessian,TD-DFT gradient, ASA, ECA, R-Raman, ABS, FL, XAS/XES, NRVS
   Peter Pinski           : DLPNO-MP2, DLPNO-MP2 Gradient
   Christoph Reimann      : Effective Core Potentials
   Marius Retegan         : Local ZFS, SOC
   Christoph Riplinger    : Optimizer, TS searches, QM/MM, DLPNO-CCSD(T), (RO)-DLPNO pert. Triples
   Tobias Risthaus        : Range-separated hybrids, TD-DFT gradient, RPA, STAB
   Michael Roemelt        : Original ROCIS implementation
   Masaaki Saitow         : Open-shell DLPNO-CCSD energy and density
   Barbara Sandhoefer     : DKH picture change effects
   Avijit Sen             : IP-ROCIS
   Kantharuban Sivalingam : CASSCF convergence, NEVPT2, FIC-MRCI
   Bernardo de Souza      : ESD, SOC TD-DFT
   Georgi Stoychev        : AutoAux, RI-MP2 NMR
   Willem Van den Heuvel  : Paramagnetic NMR
   Boris Wezisla          : Elementary symmetry handling
   Frank Wennmohs         : Technical directorship


 We gratefully acknowledge several colleagues who have allowed us to
 interface, adapt or use parts of their codes:
   Stefan Grimme, W. Hujo, H. Kruse,             : VdW corrections, initial TS optimization,
                  C. Bannwarth                     DFT functionals, gCP, sTDA/sTD-DF
   Ed Valeev, F. Pavosevic, A. Kumar             : LibInt (2-el integral package), F12 methods
   Garnet Chan, S. Sharma, J. Yang, R. Olivares  : DMRG
   Ulf Ekstrom                                   : XCFun DFT Library
   Mihaly Kallay                                 : mrcc  (arbitrary order and MRCC methods)
   Andreas Klamt, Michael Diedenhofen            : otool_cosmo (COSMO solvation model)
   Jiri Pittner, Ondrej Demel                    : Mk-CCSD
   Frank Weinhold                                : gennbo (NPA and NBO analysis)
   Christopher J. Cramer and Donald G. Truhlar   : smd solvation model
   Lars Goerigk                                  : TD-DFT with DH, B97 family of functionals
   V. Asgeirsson, H. Jonsson                     : NEB implementation
   FAccTs GmbH                                   : IRC, NEB, NEB-TS, Multilevel, MM, QM/MM, CI optimization
   S Lehtola, MJT Oliveira, MAL Marques          : LibXC Library


 Your calculation uses the libint2 library for the computation of 2-el integrals
 For citations please refer to: http://libint.valeyev.net

 Your ORCA version has been built with support for libXC version: 4.2.3
 For citations please refer to: https://tddft.org/programs/libxc/

 This ORCA versions uses:
   CBLAS   interface :  Fast vector & matrix operations
   LAPACKE interface :  Fast linear algebra routines
   SCALAPACK package :  Parallel linear algebra routines




***************************************
The coordinates will be read from file: cooh.xyz
***************************************


Ligands detected. Parsing files...
Ligand 1: Ag.xyz is a xyz file. Parsing xyz file.

FFFilename cooh.ORCAFF.prms contains only data for the protein part without ligands.
Moving FFFilename to FFFilename_Prot.
TEST MSG 
Method for extending active region .... Distance criterion.
----- Orbital basis set information -----
Your calculation utilizes the basis: def2-TZVP
   F. Weigend and R. Ahlrichs, Phys. Chem. Chem. Phys. 7, 3297 (2005).

cite the ECPs for Ag [Def2-ECP] as follows:
Ce-Yb(ecp-28): M. Dolg, H. Stoll, H.Preuss, J. Chem. Phys., 1989, 90, 1730-1734.
Y-Cd(ecp-28), Hf-Hg(ecp-46): D. Andrae,U. Haeussermann, M. Dolg, H. Stoll, H. Preuss, Theor. Chim. Acta, 1990, 77, 123-141.
In-Sb(ecp-28), Tl-Bi(ecp-46): B. Metz, H. Stoll, M. Dolg, J. Chem. Phys., 2000, 113, 2563-2569.
Te-Xe(ecp-28), Po-Rn(ecp-46): K. A. Peterson, D. Figgen, E. Goll, H. Stoll, M. Dolg, J. Chem. Phys., 2003, 119, 11113-11123.
Rb(ecp-28), Cs(ecp-46): T. Leininger, A. Nicklass, W. Kuechle, H. Stoll, M. Dolg, A. Bergner, Chem. Phys. Lett., 1996, 255, 274-280.
Sr(ecp-28), Ba(ecp-46): M. Kaupp, P. V. Schleyer, H. Stoll and H. Preuss, J. Chem. Phys., 1991, 94, 1360-1366.
La(ecp-46): M. Dolg, H. Stoll, A. Savin, H. Preuss, Theor. Chim. Acta, 1989, 75, 173-194.
Lu(ecp-28): X. Cao, M. Dolg, J. Chem. Phys., 2001, 115, 7348-7355.

ECP parameters for Ag [Def2-ECP] have been obtained from:
TURBOMOLE (7.0.2)

================================================================================
                                        WARNINGS
                       Please study these warnings very carefully!
================================================================================


WARNING: Geometry Optimization
  ===> : Switching off AutoStart
         For restart on a previous wavefunction, please use MOREAD

INFO   : the flag for use of LIBINT has been found!

================================================================================
                                       INPUT FILE
================================================================================
NAME = HCOO-Ag+_wat.inp
|  1> #QMMM simulation HCOO- Ag+ (4d10) with water as solvent
|  2> ! QMMM opt PBE0 def2-TZVP CPCM(water)
|  3> %geom
|  4>     MaxIter 200
|  5> end
|  6> %qmmm
|  7>     ORCAFFFilename "cooh.ORCAFF.prms"
|  8>     QMAtoms {0:4} end
|  9>     PrintLevel  4 
| 10>     PrintPDB true 
| 11>     Ligands
| 12>         "Ag.xyz" ORCAFF "Ag.ORCAFF.prms" end
| 13>     end
| 14> end 
| 15> %geom
| 16>     constraints
| 17>     {B 0 1 C}
| 18>     {B 0 2 C}
| 19>     {B 0 3 C}
| 20>     {B 1 2 C}
| 21>     {B 2 3 C}
| 22> end
| 23> end
| 24> %output
| 25>     PrintLevel Normal 
| 26>     Print [P_Basis] 2 
| 27>     Print [P_MOs] 1  
| 28> end
| 29> *xyzfile 0 1 cooh.xyz
| 30> 
| 31> 
| 32>                          ****END OF INPUT****
================================================================================

------------------------------------------------------------------------------

                             *******************
                             *        QMMM     *
                             *******************


------------------------------------------------------------------------------




PrintLevel                             ... 4
Coupling Scheme                        ... additive
Embedding Scheme                       ... electrostatic
Charge alteration scheme               ... Charge shifting
Scaling factor for CS scheme           ... 0.06
Gradient projection scheme             ... Lever rule
Point charges in QM calc. from MM atoms... 0
              from charge shift scheme ... 0
Skip double counting of LA terms       ... YES
Skip double counting of LA terms (bond)... YES
Gradient projection for link atoms     ...
Printing trajectories, xyz and allxyz files:
        QMMMRegion                     ... YES
        optRegion                      ... YES
        optRegionExt                   ... YES
        qmRegion                       ... YES
Parameter files:
        ORCA Forcefield Filename       ... HCOO-Ag+_wat_mergeFF.ORCAFF.prms
        QM-LA bond distances Filename  ... HCOO-Ag+_wat.H_DIST.prms
Size of different systems (in atoms):
Size of QMMM System                    ... 5
Size of MM Subsystem                   ... 0
Size of QM Subsystem                   ... 5
Number of link atoms                   ... 0
Size of QM Subsystem plus link atoms   ... 5
Size of region for optimizer           ... 5
        optimized atoms = optRegion    ... 5
        fixed atoms (distance cutoff)  ... 0 ( 1.0)
Composition of different systems (atoms start counting at 1):
QM Subsystem                           ...   0   1   2   3   4 
Optimized atoms                        ...   0   1   2   3   4 
Fixed atoms used in optimizer          ... 
Constrain bonds and angle of MM waters ... NO

                       *****************************
                       * Geometry Optimization Run *
                       *****************************

Geometry optimization settings:
Update method            Update   .... BFGS
Choice of coordinates    CoordSys .... Z-matrix Internals
Initial Hessian          InHess   .... Almoef's Model

Convergence Tolerances:
Energy Change            TolE     ....  5.0000e-06 Eh
Max. Gradient            TolMAXG  ....  3.0000e-04 Eh/bohr
RMS Gradient             TolRMSG  ....  1.0000e-04 Eh/bohr
Max. Displacement        TolMAXD  ....  4.0000e-03 bohr
RMS Displacement         TolRMSD  ....  2.0000e-03 bohr
Strict Convergence                ....  False
------------------------------------------------------------------------------
                        ORCA OPTIMIZATION COORDINATE SETUP
------------------------------------------------------------------------------

The optimization will be done in new redundant internal coordinates
Making redundant internal coordinates   ...  (new redundants) done
Evaluating the initial hessian          ...  (Almloef) done
Evaluating the coordinates              ...  done
Calculating the B-matrix                .... done
Calculating the G-matrix                .... done
Diagonalizing the G-matrix              .... done
Imposing constraints:
 Iter   0:  RMS(Cart)=    0.0000000000 RMS(Int)=    0.0000000000
CONVERGED
The first mode is                       ....   21
The number of degrees of freedom        ....    9
Storing new coordinates                 .... done

    -----------------------------------------------------------------
                    Redundant Internal Coordinates


    -----------------------------------------------------------------
         Definition                    Initial Value    Approx d2E/dq
    -----------------------------------------------------------------
      1. B(O   1,C   0)                  1.2442         0.956009 C 
      2. B(O   2,O   1)                  2.2614         0.020403 C 
      3. B(O   2,C   0)                  1.2440         0.956789 C 
      4. B(H   3,C   0)                  1.0345         0.441592 C 
      5. B(H   3,O   2)                  1.8592         0.019116 C 
      6. B(Ag  4,C   0)                  3.8767         0.000681   
      7. B(Ag  4,H   3)                  4.6024         0.000009   
      8. B(Ag  4,O   1)                  3.9553         0.000457   
      9. B(Ag  4,O   2)                  3.7934         0.000829   
     10. A(O   1,C   0,O   2)          130.6962         0.501991   
     11. A(O   1,C   0,Ag  4)           84.4507         0.182265   
     12. A(H   3,C   0,Ag  4)          129.3237         0.157288   
     13. A(O   1,C   0,H   3)          117.9542         0.391333   
     14. A(O   2,C   0,H   3)          109.0219         0.391389   
     15. A(O   2,C   0,Ag  4)           76.8965         0.182282   
     16. A(C   0,O   1,Ag  4)           77.3033         0.173719   
     17. A(C   0,O   2,Ag  4)           84.4769         0.185943   
     18. A(C   0,Ag  4,O   1)           18.2460         0.108136   
     19. A(C   0,Ag  4,O   2)           18.6266         0.110893   
     20. A(O   1,Ag  4,O   2)           33.8552         0.108887   
     21. D(Ag  4,O   1,C   0,O   2)     67.4192         0.089162   
     22. D(Ag  4,O   1,C   0,H   3)   -132.0072         0.089162   
     23. D(Ag  4,O   2,C   0,O   1)    -70.6618         0.096276   
     24. D(Ag  4,O   2,C   0,H   3)    127.4431         0.096276   
     25. D(O   2,Ag  4,C   0,O   1)    134.0469         0.001500   
     26. D(O   1,Ag  4,C   0,O   2)   -134.0469         0.001500   
     27. D(O   1,Ag  4,C   0,H   3)    121.9538         0.001500   
     28. D(O   1,Ag  4,O   2,C   0)     23.8261         0.001500   
     29. D(O   2,Ag  4,C   0,H   3)   -103.9993         0.001500   
     30. D(O   2,Ag  4,O   1,C   0)    -24.3363         0.001500   
    -----------------------------------------------------------------

Number of atoms                         .... 5
Number of degrees of freedom            .... 30

         *************************************************************
         *                GEOMETRY OPTIMIZATION CYCLE   1            *
         *************************************************************
                    ************************************                      
                    *          QM/MM SP Energy         *                      
                    ************************************                      


------------------------------------------------------------------------------
                                     QM                                       
------------------------------------------------------------------------------
Starting the QM part
---------------------------------
CARTESIAN COORDINATES (ANGSTROEM)
---------------------------------
  C     -3.119232   -0.543736   -0.300619
  O     -1.899483   -0.787569   -0.271696
  O     -3.743987    0.411334   -0.795639
  H     -3.774447   -1.327779   -0.139081
  Ag    -2.201394    2.411669    2.034355

----------------------------
CARTESIAN COORDINATES (A.U.)
----------------------------
  NO LB      ZA    FRAG     MASS         X           Y           Z
   0 C     6.0000    0    12.011   -5.894494   -1.027513   -0.568088
   1 O     8.0000    0    15.999   -3.589503   -1.488290   -0.513431
   2 O     8.0000    0    15.999   -7.075111    0.777309   -1.503541
   3 H     1.0000    0     1.008   -7.132672   -2.509138   -0.262824
   4 Ag   19.0000*   0   107.870   -4.160031    4.557394    3.844373
* core charge reduced due to ECP

--------------------------------
INTERNAL COORDINATES (ANGSTROEM)
--------------------------------
 C      0   0   0     0.000000000000     0.00000000     0.00000000
 O      1   0   0     1.244217578479     0.00000000     0.00000000
 O      1   2   0     1.243995460133   130.69615872     0.00000000
 H      1   2   3     1.034468110487   117.95424806   160.57360083
 Ag     3   1   2     3.793388931830    84.47688998   289.33818171

---------------------------
INTERNAL COORDINATES (A.U.)
---------------------------
 C      0   0   0     0.000000000000     0.00000000     0.00000000
 O      1   0   0     2.351230474336     0.00000000     0.00000000
 O      1   2   0     2.350810731493   130.69615872     0.00000000
 H      1   2   3     1.954861423096   117.95424806   160.57360083
 Ag     3   1   2     7.168466200606    84.47688998   289.33818171

---------------------
BASIS SET INFORMATION
---------------------
There are 4 groups of distinct atoms

 Group   1 Type C   : 11s6p2d1f contracted to 5s3p2d1f pattern {62111/411/11/1}
 Group   2 Type O   : 11s6p2d1f contracted to 5s3p2d1f pattern {62111/411/11/1}
 Group   3 Type H   : 5s1p contracted to 3s1p pattern {311/1}
 Group   4 Type Ag  : 7s7p6d1f contracted to 6s4p3d1f pattern {211111/4111/411/1}

Atom   0C    basis set group =>   1
Atom   1O    basis set group =>   2
Atom   2O    basis set group =>   2
Atom   3H    basis set group =>   3
Atom   4Ag   basis set group =>   4

-------------------------
BASIS SET IN INPUT FORMAT
-------------------------

 # Basis set for element : H 
 NewGTO H 
 S 3 
   1      34.0613410000      0.0254393072
   2       5.1235746000      0.1900859489
   3       1.1646626000      0.8524411301
 S 1 
   1       0.3272304100      1.0000000000
 S 1 
   1       0.1030724100      1.0000000000
 P 1 
   1       0.8000000000      1.0000000000
  end;

 # Basis set for element : C 
 NewGTO C 
 S 6 
   1   13575.3496820000      0.0006064549
   2    2035.2333680000      0.0046979088
   3     463.2256235900      0.0243324776
   4     131.2001959800      0.0973999683
   5      42.8530158910      0.3019558425
   6      15.5841857660      0.6623360915
 S 2 
   1       6.2067138508      0.6559530854
   2       2.5764896527      0.3758563329
 S 1 
   1       0.5769633942      1.0000000000
 S 1 
   1       0.2297283136      1.0000000000
 S 1 
   1       0.0951644400      1.0000000000
 P 4 
   1      34.6972322440      0.0113272200
   2       7.9582622826      0.0761696592
   3       2.3780826883      0.3019225220
   4       0.8143320818      0.7278502735
 P 1 
   1       0.2888754725      1.0000000000
 P 1 
   1       0.1005682367      1.0000000000
 D 1 
   1       1.0970000000      1.0000000000
 D 1 
   1       0.3180000000      1.0000000000
 F 1 
   1       0.7610000000      1.0000000000
  end;

 # Basis set for element : O 
 NewGTO O 
 S 6 
   1   27032.3826310000      0.0005722733
   2    4052.3871392000      0.0044353233
   3     922.3272271000      0.0230201076
   4     261.2407098900      0.0928224906
   5      85.3546413510      0.2937850002
   6      31.0350352450      0.6740160450
 S 2 
   1      12.2608607280      0.6383993702
   2       4.9987076005      0.3953458713
 S 1 
   1       1.1703108158      1.0000000000
 S 1 
   1       0.4647474099      1.0000000000
 S 1 
   1       0.1850453636      1.0000000000
 P 4 
   1      63.2749548010      0.0120183321
   2      14.6270493790      0.0830054217
   3       4.4501223456      0.3199174393
   4       1.5275799647      0.7071554292
 P 1 
   1       0.5293511794      1.0000000000
 P 1 
   1       0.1747842127      1.0000000000
 D 1 
   1       2.3140000000      1.0000000000
 D 1 
   1       0.6450000000      1.0000000000
 F 1 
   1       1.4280000000      1.0000000000
  end;

 # Basis set for element : Ag
 NewGTO Ag
 S 2 
   1      19.0000000000     -0.8594685537
   2      15.4281999330      1.8465563920
 S 1 
   1       6.0553507268      1.0000000000
 S 1 
   1       1.4162368935      1.0000000000
 S 1 
   1       0.6175863586      1.0000000000
 S 1 
   1       0.1047419743      1.0000000000
 S 1 
   1       0.0376851063      1.0000000000
 P 4 
   1      13.1881801800      0.0769824523
   2       7.7952789138     -0.2845084432
   3       2.0351571912      0.5653800140
   4       0.9809391484      0.5721355592
 P 1 
   1       0.4445117996      1.0000000000
 P 1 
   1       0.1300000000      1.0000000000
 P 1 
   1       0.0412000000      1.0000000000
 D 4 
   1      25.7843973510      0.0057358549
   2      11.3966367550     -0.0208937342
   3       2.7345581361      0.3879491828
   4       1.1873583605      0.6824815392
 D 1 
   1       0.4731691057      1.0000000000
 D 1 
   1       0.1674601799      1.0000000000
 F 1 
   1       1.3971100000      1.0000000000
  end;

-------------------------
ECP PARAMETER INFORMATION
-------------------------

 Group 1, Type Ag ECP Def2-ECP (replacing 28 core electrons, lmax=3)

Atom   4Ag   ECP group =>   1


-------------------------
ECP BASIS IN INPUT FORMAT
-------------------------

 #ECP Def2-ECP
 NewECP Ag
   N_core 28
   lmax f
   s 4
     1      13.1300000000    255.1393645000  2
     2       6.5100000000     36.8661215000  2
     3      14.2200000000     33.6899201000  2
     4       7.1100000000      5.5311202000  2
   p 4
     1      11.7400000000    182.1818687000  2
     2       6.2000000000     30.3577515000  2
     3      14.2200000000     33.6899201000  2
     4       7.1100000000      5.5311202000  2
   d 4
     1      10.2100000000     73.7192609000  2
     2       4.3800000000     12.5021171000  2
     3      14.2200000000     33.6899201000  2
     4       7.1100000000      5.5311202000  2
   f 2
     1      14.2200000000    -33.6899201000  2
     2       7.1100000000     -5.5311202000  2
 End


------------------------------------------------------------------------------
                           ORCA GTO INTEGRAL CALCULATION
------------------------------------------------------------------------------

                         BASIS SET STATISTICS AND STARTUP INFO

 # of primitive gaussian shells          ...   87
 # of primitive gaussian functions       ...  211
 # of contracted shells                  ...   51
 # of contracted basis functions         ...  139
 Highest angular momentum                ...    3
 Maximum contraction depth               ...    6
 Integral package used                   ... LIBINT
 Integral threshhold            Thresh   ...  2.500e-11
 Primitive cut-off              TCut     ...  2.500e-12


------------------------------ INTEGRAL EVALUATION ----------------------------


 * One electron integrals 

   ECP integrals                         ... done
 Pre-screening matrix                    ... done
 Shell pair data                         ... done (   0.000 sec)

-------------------------------------------------------------------------------
                                 ORCA SCF
-------------------------------------------------------------------------------

------------
SCF SETTINGS
------------
Hamiltonian:
 Density Functional     Method          .... DFT(GTOs)
 Exchange Functional    Exchange        .... PBE
   PBE kappa parameter   XKappa         ....  0.804000
   PBE mue parameter    XMuePBE         ....  0.219520
 Correlation Functional Correlation     .... PBE
   PBE beta parameter  CBetaPBE         ....  0.066725
 LDA part of GGA corr.  LDAOpt          .... PW91-LDA
 Gradients option       PostSCFGGA      .... off
 Hybrid DFT is turned on
   Fraction HF Exchange ScalHFX         ....  0.250000
   Scaling of DF-GGA-X  ScalDFX         ....  0.750000
   Scaling of DF-GGA-C  ScalDFC         ....  1.000000
   Scaling of DF-LDA-C  ScalLDAC        ....  1.000000
   Perturbative correction              ....  0.000000
   Density functional embedding theory  .... OFF
   NL short-range parameter             ....  6.900000


General Settings:
 Integral files         IntName         .... HCOO-Ag+_wat
 Hartree-Fock type      HFTyp           .... RHF
 Total Charge           Charge          ....    0
 Multiplicity           Mult            ....    1
 Number of Electrons    NEL             ....   42
 Basis Dimension        Dim             ....  139
 Nuclear Repulsion      ENuc            ....    122.6062033610 Eh

Convergence Acceleration:
 DIIS                   CNVDIIS         .... on
   Start iteration      DIISMaxIt       ....    12
   Startup error        DIISStart       ....  0.200000
   # of expansion vecs  DIISMaxEq       ....     5
   Bias factor          DIISBfac        ....   1.050
   Max. coefficient     DIISMaxC        ....  10.000
 Newton-Raphson         CNVNR           .... off
 SOSCF                  CNVSOSCF        .... off
 Level Shifting         CNVShift        .... on
   Level shift para.    LevelShift      ....    0.2500
   Turn off err/grad.   ShiftErr        ....    0.0010
 Zerner damping         CNVZerner       .... off
 Static damping         CNVDamp         .... on
   Fraction old density DampFac         ....    0.7000
   Max. Damping (<1)    DampMax         ....    0.9800
   Min. Damping (>=0)   DampMin         ....    0.0000
   Turn off err/grad.   DampErr         ....    0.1000
 Fernandez-Rico         CNVRico         .... off

SCF Procedure:
 Maximum # iterations   MaxIter         ....   125
 SCF integral mode      SCFMode         .... Direct
   Integral package                     .... LIBINT
 Reset frequency        DirectResetFreq ....    20
 Integral Threshold     Thresh          ....  2.500e-11 Eh
 Primitive CutOff       TCut            ....  2.500e-12 Eh

Convergence Tolerance:
 Convergence Check Mode ConvCheckMode   .... Total+1el-Energy
 Convergence forced     ConvForced      .... 0
 Energy Change          TolE            ....  1.000e-08 Eh
 1-El. energy change                    ....  1.000e-05 Eh
 DIIS Error             TolErr          ....  5.000e-07


Diagonalization of the overlap matrix:
Smallest eigenvalue                        ... 1.181e-03
Time for diagonalization                   ...    0.002 sec
Threshold for overlap eigenvalues          ... 1.000e-08
Number of eigenvalues below threshold      ... 0
Time for construction of square roots      ...    0.001 sec
Total time needed                          ...    0.003 sec

-------------------
DFT GRID GENERATION
-------------------

General Integration Accuracy     IntAcc      ...  4.340
Radial Grid Type                 RadialGrid  ... Gauss-Chebyshev
Angular Grid (max. acc.)         AngularGrid ... Lebedev-110
Angular grid pruning method      GridPruning ... 3 (G Style)
Weight generation scheme         WeightScheme... Becke
Basis function cutoff            BFCut       ...    1.0000e-11
Integration weight cutoff        WCut        ...    1.0000e-14
Grids for H and He will be reduced by one unit

# of grid points (after initial pruning)     ...   9140 (   0.0 sec)
# of grid points (after weights+screening)   ...   9026 (   0.0 sec)
nearest neighbour list constructed           ...    0.0 sec
Grid point re-assignment to atoms done       ...    0.0 sec
Grid point division into batches done        ...    0.0 sec
Reduced shell lists constructed in    0.0 sec

Total number of grid points                  ...     9026
Total number of batches                      ...      144
Average number of points per batch           ...       62
Average number of grid points per atom       ...     1805
Average number of shells per batch           ...    33.52 (65.72%)
Average number of basis functions per batch  ...    92.80 (66.76%)
Average number of large shells per batch     ...    27.77 (82.84%)
Average number of large basis fcns per batch ...    75.78 (81.66%)
Maximum spatial batch extension              ...  34.29, 32.44, 43.67 au
Average spatial batch extension              ...   6.21,  5.44,  6.25 au

Time for grid setup =    0.044 sec

------------------------------
INITIAL GUESS: MODEL POTENTIAL
------------------------------
Loading Hartree-Fock densities                     ... done
  calling /home/ubuntu/orca/orca_4_2_1_linux_x86-64_openmpi314/orca HCOO-Ag+_wat_atom47.inp > HCOO-Ag+_wat_atom47.out in order to generate an atomic fitting density for atom 4 (Ag with ECP) on-the-fly... 
    atom 4 (Ag), assumed electronic state with S=2: 1s2 2s2 2p6 3s2 3p6 4s2 3d10 4p6 5s2 4d9           ... done
Calculating cut-offs                               ... done
Setting up the integral package                    ... done
Initializing the effective Hamiltonian             ... done
Starting the Coulomb interaction                   ... done (   0.0 sec)
Reading the grid                                   ... done
Mapping shells                                     ... done
Starting the XC term evaluation                    ... done (   0.1 sec)
  promolecular density results
     # of electrons  =     70.002172386
     EX              =   -165.067087439
     EC              =     -3.241925399
     EX+EC           =   -168.309012838
Transforming the Hamiltonian                       ... done (   0.0 sec)
Diagonalizing the Hamiltonian                      ... done (   0.0 sec)
Back transforming the eigenvectors                 ... done (   0.0 sec)
Now organizing SCF variables                       ... done
                      ------------------
                      INITIAL GUESS DONE (   1.2 sec)
                      ------------------

--------------------
CPCM SOLVATION MODEL
--------------------
CPCM parameters:
  Epsilon                                         ...      80.4000
  Refrac                                          ...       1.3300
  Rsolv                                           ...       1.3000
  Surface type                                    ...    GEPOL SES
  Epsilon function type                           ...         CPCM
Radii:
 Radius for C  used is    3.7795 Bohr (=   2.0000 Ang.)
 Radius for O  used is    3.2503 Bohr (=   1.7200 Ang.)
 Radius for H  used is    2.4566 Bohr (=   1.3000 Ang.)
 Radius for Ag used is    4.2009 Bohr (=   2.2230 Ang.)
Calculating surface                               ...        
        surface point of sphere 3 conflicts with surface point 136 - Point discarded 
done! (  0.0s)
GEPOL surface points                              ...          263
GEPOL Volume                                      ...     657.5674
GEPOL Surface-area                                ...     431.6688
Calculating surface distance matrix               ...        done! (  0.0s)
Performing Cholesky decomposition & store         ...        done! (  0.0s)
Overall time for CPCM initialization              ...                 0.0s
--------------
SCF ITERATIONS
--------------
               ***  Starting incremental Fock matrix formation  ***

                         ----------------------------
                         !        ITERATION     0   !
                         ----------------------------
   Total Energy        :    -335.732596440291 Eh
   Energy Change       :    -335.732596440291 Eh
   MAX-DP              :       0.077934931526
   RMS-DP              :       0.002301746069
   Actual Damping      :       0.7000
   Actual Level Shift  :       0.2500 Eh
   Int. Num. El.       :    42.00098051 (UP=   21.00049026 DN=   21.00049026)
   Exchange            :   -27.31487382
   Correlation         :    -1.61562059


                         ----------------------------
                         !        ITERATION     1   !
                         ----------------------------
   Total Energy        :    -335.852371965132 Eh
   Energy Change       :      -0.119775524842 Eh
   MAX-DP              :       0.042974177950
   RMS-DP              :       0.001565141787
   Actual Damping      :       0.7000
   Actual Level Shift  :       0.2500 Eh
   Int. Num. El.       :    42.00138308 (UP=   21.00069154 DN=   21.00069154)
   Exchange            :   -26.90532273
   Correlation         :    -1.60411424


                         ----------------------------
                         !        ITERATION     2   !
                         ----------------------------
   Total Energy        :    -335.895875913404 Eh
   Energy Change       :      -0.043503948272 Eh
   MAX-DP              :       0.021851238195
   RMS-DP              :       0.000710276508
   Actual Damping      :       0.7000
   Actual Level Shift  :       0.2500 Eh
   Int. Num. El.       :    42.00164396 (UP=   21.00082198 DN=   21.00082198)
   Exchange            :   -26.67479369
   Correlation         :    -1.59744142

                               ***Turning on DIIS***

                         ----------------------------
                         !        ITERATION     3   !
                         ----------------------------
   Total Energy        :    -335.922040903105 Eh
   Energy Change       :      -0.026164989701 Eh
   MAX-DP              :       0.008568852808
   RMS-DP              :       0.000279425970
   Actual Damping      :       0.7000
   Actual Level Shift  :       0.2500 Eh
   Int. Num. El.       :    42.00173150 (UP=   21.00086575 DN=   21.00086575)
   Exchange            :   -26.59490109
   Correlation         :    -1.59504331
   DIIS-Error          :       0.154698992121


                         ----------------------------
                         !        ITERATION     4   !
                         ----------------------------
   Total Energy        :    -335.940948682682 Eh
   Energy Change       :      -0.018907779577 Eh
   MAX-DP              :       0.004068161037
   RMS-DP              :       0.000144924782
   Actual Damping      :       0.7000
   Actual Level Shift  :       0.2500 Eh
   Int. Num. El.       :    42.00174002 (UP=   21.00087001 DN=   21.00087001)
   Exchange            :   -26.57873135
   Correlation         :    -1.59453985
   DIIS-Error          :       0.107362107938
   DIIS coefficients:
     -1.28595   2.28595


                         ----------------------------
                         !        ITERATION     5   !
                         ----------------------------
   Total Energy        :    -335.954287654725 Eh
   Energy Change       :      -0.013338972042 Eh
   MAX-DP              :       0.012393664024
   RMS-DP              :       0.000375354341
   Actual Damping      :       0.0000
   Actual Level Shift  :       0.2500 Eh
   Int. Num. El.       :    42.00172351 (UP=   21.00086176 DN=   21.00086176)
   Exchange            :   -26.58519530
   Correlation         :    -1.59484073
   DIIS-Error          :       0.075771207993
   DIIS coefficients:
     -0.57827  -0.51806   2.09634


                         ----------------------------
                         !        ITERATION     6   !
                         ----------------------------
   Total Energy        :    -335.985377672709 Eh
   Energy Change       :      -0.031090017984 Eh
   MAX-DP              :       0.001788037352
   RMS-DP              :       0.000055504145
   Actual Damping      :       0.0000
   Actual Level Shift  :       0.2500 Eh
   Int. Num. El.       :    42.00169138 (UP=   21.00084569 DN=   21.00084569)
   Exchange            :   -26.58853268
   Correlation         :    -1.59560185
   DIIS-Error          :       0.001864966147
   DIIS coefficients:
     -0.06285   0.03433   0.07492   0.95360


                         ----------------------------
                         !        ITERATION     7   !
                         ----------------------------
   Total Energy        :    -335.985389543401 Eh
   Energy Change       :      -0.000011870692 Eh
   MAX-DP              :       0.001359718138
   RMS-DP              :       0.000029024159
   Actual Damping      :       0.0000
   Actual Level Shift  :       0.0000 Eh
   Int. Num. El.       :    42.00169607 (UP=   21.00084803 DN=   21.00084803)
   Exchange            :   -26.58524722
   Correlation         :    -1.59543330
   DIIS-Error          :       0.000759799895
   DIIS coefficients:
     -0.00108   0.00554  -0.00473   0.29257   0.70770


                         ----------------------------
                         !        ITERATION     8   !
                         ----------------------------
   Total Energy        :    -335.985392138194 Eh
   Energy Change       :      -0.000002594793 Eh
   MAX-DP              :       0.000348201398
   RMS-DP              :       0.000008100062
   Actual Damping      :       0.0000
   Actual Level Shift  :       0.0000 Eh
   Int. Num. El.       :    42.00169670 (UP=   21.00084835 DN=   21.00084835)
   Exchange            :   -26.58571852
   Correlation         :    -1.59548210
   DIIS-Error          :       0.000262402958
   DIIS coefficients:
      0.69186  -0.00233   0.00268   0.07298   0.23480


                         ----------------------------
                         !        ITERATION     9   !
                         ----------------------------
   Total Energy        :    -335.985392256897 Eh
   Energy Change       :      -0.000000118703 Eh
   MAX-DP              :       0.000066674048
   RMS-DP              :       0.000002645514
   Actual Damping      :       0.0000
   Actual Level Shift  :       0.0000 Eh
   Int. Num. El.       :    42.00169583 (UP=   21.00084791 DN=   21.00084791)
   Exchange            :   -26.58628690
   Correlation         :    -1.59549200
   DIIS-Error          :       0.000197689229
   DIIS coefficients:
      0.39425   0.64285  -0.00009  -0.01817  -0.01884


                         ----------------------------
                         !        ITERATION    10   !
                         ----------------------------
   Total Energy        :    -335.985392330818 Eh
   Energy Change       :      -0.000000073921 Eh
   MAX-DP              :       0.000021697663
   RMS-DP              :       0.000000590871
   Actual Damping      :       0.0000
   Actual Level Shift  :       0.0000 Eh
   Int. Num. El.       :    42.00169638 (UP=   21.00084819 DN=   21.00084819)
   Exchange            :   -26.58603572
   Correlation         :    -1.59548822
   DIIS-Error          :       0.000010186744
   DIIS coefficients:
     -0.00511   0.03298   0.98084  -0.00251  -0.00619


                         ----------------------------
                         !        ITERATION    11   !
                         ----------------------------
   Total Energy        :    -335.985392331420 Eh
   Energy Change       :      -0.000000000602 Eh
   MAX-DP              :       0.000004994513
   RMS-DP              :       0.000000169718
   Actual Damping      :       0.0000
   Actual Level Shift  :       0.0000 Eh
   Int. Num. El.       :    42.00169640 (UP=   21.00084820 DN=   21.00084820)
   Exchange            :   -26.58604085
   Correlation         :    -1.59548844
   DIIS-Error          :       0.000012020164
   DIIS coefficients:
     -0.01766  -0.00694   0.59951   0.42645  -0.00135


                         ----------------------------
                         !        ITERATION    12   !
                         ----------------------------
   Total Energy        :    -335.985392332086 Eh
   Energy Change       :      -0.000000000666 Eh
   MAX-DP              :       0.000002314211
   RMS-DP              :       0.000000076928
   Actual Damping      :       0.0000
   Actual Level Shift  :       0.0000 Eh
   Int. Num. El.       :    42.00169641 (UP=   21.00084820 DN=   21.00084820)
   Exchange            :   -26.58604283
   Correlation         :    -1.59548850
   DIIS-Error          :       0.000003882556
   DIIS coefficients:
     -0.00366  -0.00628   0.05129   0.21580   0.74285

                            ***DIIS convergence achieved***

               *****************************************************
               *                     SUCCESS                       *
               *           SCF CONVERGED AFTER  13 CYCLES          *
               *****************************************************

Setting up the final grid:

General Integration Accuracy     IntAcc      ...  4.670
Radial Grid Type                 RadialGrid  ... Gauss-Chebyshev
Angular Grid (max. acc.)         AngularGrid ... Lebedev-302
Angular grid pruning method      GridPruning ... 3 (G Style)
Weight generation scheme         WeightScheme... Becke
Basis function cutoff            BFCut       ...    1.0000e-11
Integration weight cutoff        WCut        ...    1.0000e-14
Grids for H and He will be reduced by one unit

# of grid points (after initial pruning)     ...  32688 (   0.0 sec)
# of grid points (after weights+screening)   ...  32121 (   0.0 sec)
nearest neighbour list constructed           ...    0.0 sec
Grid point re-assignment to atoms done       ...    0.0 sec
Grid point division into batches done        ...    0.1 sec
Reduced shell lists constructed in    0.2 sec

Total number of grid points                  ...    32121
Total number of batches                      ...      504
Average number of points per batch           ...       63
Average number of grid points per atom       ...     6424
Average number of shells per batch           ...    30.61 (60.02%)
Average number of basis functions per batch  ...    84.24 (60.60%)
Average number of large shells per batch     ...    25.23 (82.43%)
Average number of large basis fcns per batch ...    68.65 (81.49%)
Maximum spatial batch extension              ...  43.14, 41.89, 48.26 au
Average spatial batch extension              ...   3.93,  3.82,  3.95 au

Final grid set up in    0.3 sec
Final integration                            ... done (   0.2 sec)
Change in XC energy                          ...     0.000197418
Integrated number of electrons               ...    42.000014660
Previous integrated no of electrons          ...    42.001696409

----------------
TOTAL SCF ENERGY
----------------

Total Energy       :         -335.98519491 Eh           -9142.62196 eV

Components:
Nuclear Repulsion  :          122.60620336 Eh            3336.28441 eV
Electronic Energy  :         -458.59139828 Eh          -12478.90636 eV
One Electron Energy:         -764.73664837 Eh          -20809.54214 eV
Two Electron Energy:          306.14525009 Eh            8330.63578 eV
CPCM Dielectric    :           -0.09488743 Eh              -2.58202 eV

Virial components:
Potential Energy   :         -581.06170670 Eh          -15811.49288 eV
Kinetic Energy     :          245.07651179 Eh            6668.87092 eV
Virial Ratio       :            2.37094001


DFT components:
N(Alpha)           :       21.000007329888 electrons
N(Beta)            :       21.000007329888 electrons
N(Total)           :       42.000014659776 electrons
E(X)               :      -26.585899502007 Eh       
E(C)               :       -1.595436272241 Eh       
E(XC)              :      -28.181335774248 Eh       
DFET-embed. en.    :        0.000000000000 Eh       
CPCM Solvation Model Properties:
Surface-charge          :           -0.01791530
Charge-correction       :           -0.00003011 Eh              -0.00082 eV
Free-energy (cav+disp)  :            0.00340811 Eh               0.09274 eV
Corrected G(solv)       :         -335.98181691 Eh           -9142.53004 eV

---------------
SCF CONVERGENCE
---------------

  Last Energy change         ...   -4.1985e-10  Tolerance :   1.0000e-08
  Last MAX-Density change    ...    7.9514e-07  Tolerance :   1.0000e-07
  Last RMS-Density change    ...    2.9261e-08  Tolerance :   5.0000e-09
  Last DIIS Error            ...    7.9822e-07  Tolerance :   5.0000e-07

             **** THE GBW FILE WAS UPDATED (HCOO-Ag+_wat.gbw) ****
             **** DENSITY FILE WAS UPDATED (HCOO-Ag+_wat.scfp) ****
             **** ENERGY FILE WAS UPDATED (HCOO-Ag+_wat.en.tmp) ****
             **** THE GBW FILE WAS UPDATED (HCOO-Ag+_wat.gbw) ****
             **** DENSITY FILE WAS UPDATED (HCOO-Ag+_wat.scfp) ****
----------------
ORBITAL ENERGIES
----------------

  NO   OCC          E(Eh)            E(eV) 
   0   2.0000     -19.147581      -521.0322 
   1   2.0000     -19.145677      -520.9804 
   2   2.0000     -10.285761      -279.8898 
   3   2.0000      -3.826845      -104.1337 
   4   2.0000      -2.414858       -65.7116 
   5   2.0000      -2.414752       -65.7088 
   6   2.0000      -2.414714       -65.7077 
   7   2.0000      -1.055521       -28.7222 
   8   2.0000      -0.970631       -26.4122 
   9   2.0000      -0.572939       -15.5905 
  10   2.0000      -0.461468       -12.5572 
  11   2.0000      -0.426362       -11.6019 
  12   2.0000      -0.411112       -11.1869 
  13   2.0000      -0.402110       -10.9420 
  14   2.0000      -0.402078       -10.9411 
  15   2.0000      -0.401910       -10.9365 
  16   2.0000      -0.401885       -10.9359 
  17   2.0000      -0.400834       -10.9072 
  18   2.0000      -0.274035        -7.4569 
  19   2.0000      -0.263136        -7.1603 
  20   2.0000      -0.248488        -6.7617 
  21   0.0000      -0.136851        -3.7239 
  22   0.0000       0.011769         0.3202 
  23   0.0000       0.013577         0.3694 
  24   0.0000       0.017941         0.4882 
  25   0.0000       0.057076         1.5531 
  26   0.0000       0.111106         3.0233 
  27   0.0000       0.130924         3.5626 
  28   0.0000       0.168544         4.5863 
  29   0.0000       0.177582         4.8323 
  30   0.0000       0.196247         5.3402 
  31   0.0000       0.207379         5.6431 
  32   0.0000       0.208812         5.6821 
  33   0.0000       0.269819         7.3422 
  34   0.0000       0.311535         8.4773 
  35   0.0000       0.384205        10.4548 
  36   0.0000       0.392513        10.6808 
  37   0.0000       0.406169        11.0524 
  38   0.0000       0.414623        11.2825 
  39   0.0000       0.425993        11.5919 
  40   0.0000       0.443123        12.0580 
  41   0.0000       0.470883        12.8134 
  42   0.0000       0.493184        13.4202 
  43   0.0000       0.517052        14.0697 
  44   0.0000       0.534420        14.5423 
  45   0.0000       0.552702        15.0398 
  46   0.0000       0.595867        16.2144 
  47   0.0000       0.626869        17.0580 
  48   0.0000       0.648297        17.6411 
  49   0.0000       0.748184        20.3591 
  50   0.0000       0.804346        21.8874 
  51   0.0000       0.838279        22.8107 
  52   0.0000       0.895086        24.3565 
  53   0.0000       0.914021        24.8718 
  54   0.0000       1.120805        30.4986 
  55   0.0000       1.205491        32.8031 
  56   0.0000       1.388112        37.7724 
  57   0.0000       1.454143        39.5692 
  58   0.0000       1.468232        39.9526 
  59   0.0000       1.516565        41.2678 
  60   0.0000       1.539708        41.8976 
  61   0.0000       1.579547        42.9817 
  62   0.0000       1.587822        43.2068 
  63   0.0000       1.606526        43.7158 
  64   0.0000       1.625827        44.2410 
  65   0.0000       1.740566        47.3632 
  66   0.0000       1.778603        48.3982 
  67   0.0000       1.805811        49.1386 
  68   0.0000       1.847938        50.2850 
  69   0.0000       1.971441        53.6456 
  70   0.0000       1.993229        54.2385 
  71   0.0000       2.013452        54.7888 
  72   0.0000       2.014964        54.8300 
  73   0.0000       2.023298        55.0567 
  74   0.0000       2.051369        55.8206 
  75   0.0000       2.061081        56.0849 
  76   0.0000       2.104172        57.2574 
  77   0.0000       2.129718        57.9526 
  78   0.0000       2.196998        59.7834 
  79   0.0000       2.250486        61.2388 
  80   0.0000       2.348439        63.9043 
  81   0.0000       2.379309        64.7443 
  82   0.0000       2.538088        69.0649 
  83   0.0000       2.538093        69.0650 
  84   0.0000       2.538176        69.0673 
  85   0.0000       2.538180        69.0674 
  86   0.0000       2.538233        69.0688 
  87   0.0000       2.538359        69.0723 
  88   0.0000       2.539366        69.0997 
  89   0.0000       2.652746        72.1849 
  90   0.0000       2.675668        72.8086 
  91   0.0000       2.759067        75.0780 
  92   0.0000       2.891287        78.6759 
  93   0.0000       2.943957        80.1091 
  94   0.0000       2.960610        80.5623 
  95   0.0000       2.976954        81.0070 
  96   0.0000       3.035062        82.5882 
  97   0.0000       3.067461        83.4699 
  98   0.0000       3.143184        85.5304 
  99   0.0000       3.199606        87.0657 
 100   0.0000       3.288140        89.4748 
 101   0.0000       3.307405        89.9991 
 102   0.0000       3.464365        94.2702 
 103   0.0000       3.508297        95.4656 
 104   0.0000       3.612541        98.3022 
 105   0.0000       3.815708       103.8307 
 106   0.0000       3.883600       105.6781 
 107   0.0000       4.182817       113.8202 
 108   0.0000       4.259516       115.9073 
 109   0.0000       4.444633       120.9446 
 110   0.0000       5.191235       141.2607 
 111   0.0000       5.194541       141.3506 
 112   0.0000       5.228588       142.2771 
 113   0.0000       5.233177       142.4020 
 114   0.0000       5.412937       147.2935 
 115   0.0000       5.527236       150.4037 
 116   0.0000       5.552595       151.0938 
 117   0.0000       5.608359       152.6112 
 118   0.0000       5.871544       159.7728 
 119   0.0000       6.004827       163.3996 
 120   0.0000       6.160639       167.6395 
 121   0.0000       6.189969       168.4376 
 122   0.0000       6.350585       172.8082 
 123   0.0000       6.421051       174.7257 
 124   0.0000       6.432949       175.0494 
 125   0.0000       6.475017       176.1942 
 126   0.0000       6.497277       176.7999 
 127   0.0000       6.665385       181.3743 
 128   0.0000       6.805230       185.1797 
 129   0.0000       6.893543       187.5828 
 130   0.0000       6.916711       188.2133 
 131   0.0000       7.095947       193.0905 
 132   0.0000       7.157728       194.7717 
 133   0.0000       7.163851       194.9383 
 134   0.0000      23.444732       637.9636 
 135   0.0000      33.211686       903.7359 
 136   0.0000      43.718394      1189.6380 
 137   0.0000      43.821768      1192.4509 
 138   0.0000     110.736523      3013.2940 
------------------
MOLECULAR ORBITALS
------------------
                      0         1         2         3         4         5   
                 -19.14758 -19.14568 -10.28576  -3.82685  -2.41486  -2.41475
                   2.00000   2.00000   2.00000   2.00000   2.00000   2.00000
                  --------  --------  --------  --------  --------  --------
  0C   1s        -0.000030  0.000031 -0.467162  0.000000  0.000001  0.000000
  0C   2s         0.000193 -0.000196 -0.608240 -0.000005  0.000003  0.000001
  0C   3s        -0.000617  0.000565 -0.034155 -0.000134  0.000049  0.000029
  0C   4s        -0.002301  0.002672  0.001958  0.000871 -0.000344 -0.000180
  0C   5s         0.003083 -0.003737 -0.008446  0.000207  0.000106 -0.000107
  0C   1pz        0.000078 -0.000306  0.000412 -0.000013  0.000001  0.000002
  0C   1px       -0.000587 -0.000253 -0.000559 -0.000004  0.000002  0.000003
  0C   1py        0.000103  0.000449 -0.000716 -0.000015  0.000003  0.000001
  0C   2pz       -0.000923 -0.001878  0.002572  0.000011 -0.000052 -0.000034
  0C   2px       -0.005898 -0.003736 -0.001915 -0.000021  0.000013 -0.000176
  0C   2py        0.001761  0.004435 -0.002360  0.000098  0.000050  0.000031
  0C   3pz       -0.000225  0.001085 -0.000832  0.000071 -0.000041 -0.000007
  0C   3px        0.003530  0.000387  0.001671 -0.000554  0.000253  0.000042
  0C   3py        0.001244 -0.002746  0.001534 -0.000722  0.000377  0.000168
  0C   1dz2       0.000249 -0.000159  0.001923 -0.000020  0.000008  0.000004
  0C   1dxz      -0.000004  0.000146 -0.000561  0.000019 -0.000009 -0.000002
  0C   1dyz       0.000015 -0.000282  0.001283  0.000007 -0.000010 -0.000004
  0C   1dx2y2    -0.000380 -0.000162 -0.000867 -0.000004  0.000003 -0.000005
  0C   1dxy       0.000123 -0.000266  0.001182 -0.000007 -0.000002 -0.000001
  0C   2dz2       0.000929 -0.000002  0.002547 -0.000077  0.000027  0.000017
  0C   2dxz       0.000046  0.001165 -0.001049 -0.000049  0.000056 -0.000006
  0C   2dyz      -0.000809 -0.001205  0.001698 -0.000104  0.000059  0.000011
  0C   2dx2y2    -0.002813 -0.001426 -0.001078  0.000071 -0.000031 -0.000050
  0C   2dxy       0.000757 -0.002108  0.002218 -0.000027 -0.000052  0.000038
  0C   1f0        0.000061  0.000085 -0.000441  0.000008 -0.000000 -0.000000
  0C   1f+1       0.000110  0.000132  0.000562 -0.000010  0.000004  0.000008
  0C   1f-1       0.000071 -0.000058 -0.000343  0.000011 -0.000007 -0.000001
  0C   1f+2       0.000145  0.000131 -0.000491 -0.000006  0.000002 -0.000002
  0C   1f-2       0.000216 -0.000043 -0.001092  0.000029 -0.000011 -0.000001
  0C   1f+3      -0.000193  0.000292  0.002465 -0.000034  0.000015  0.000005
  0C   1f-3       0.000105  0.000011 -0.000890  0.000015 -0.000008 -0.000005
  1O   1s        -0.435384  0.000703  0.000065  0.000000 -0.000000  0.000000
  1O   2s        -0.639689  0.001017  0.000242 -0.000007  0.000002  0.000001
  1O   3s        -0.033996 -0.000017 -0.002610  0.000095 -0.000033 -0.000015
  1O   4s         0.024979  0.001122  0.008241 -0.000376  0.000142  0.000072
  1O   5s        -0.009708  0.001561  0.002263  0.000395 -0.000237  0.000154
  1O   1pz        0.000030 -0.000003  0.000011 -0.000011  0.000009  0.000004
  1O   1px        0.001854 -0.000014  0.000645  0.000008 -0.000007  0.000000
  1O   1py       -0.000476  0.000009 -0.000142  0.000005 -0.000005 -0.000001
  1O   2pz       -0.000146 -0.000136 -0.000156  0.000055 -0.000032 -0.000010
  1O   2px       -0.004719 -0.000706 -0.006487  0.000038 -0.000011 -0.000050
  1O   2py        0.001147  0.000347  0.001409 -0.000054  0.000012 -0.000003
  1O   3pz        0.000115 -0.000463  0.000167 -0.000035  0.000027  0.000019
  1O   3px        0.000833 -0.000307 -0.000381  0.000207 -0.000086 -0.000173
  1O   3py       -0.000656  0.000981 -0.000534  0.000251 -0.000091 -0.000003
  1O   1dz2       0.000121 -0.000049  0.000027 -0.000003  0.000002  0.000002
  1O   1dxz      -0.000008 -0.000029  0.000011 -0.000000 -0.000000  0.000001
  1O   1dyz      -0.000036 -0.000062  0.000010 -0.000001 -0.000001 -0.000002
  1O   1dx2y2    -0.000260  0.000035 -0.000053  0.000005 -0.000001 -0.000003
  1O   1dxy       0.000101  0.000016 -0.000009  0.000002  0.000000  0.000001
  1O   2dz2      -0.000566  0.000073 -0.001535  0.000025 -0.000013 -0.000016
  1O   2dxz       0.000045  0.000198  0.000155 -0.000010  0.000005 -0.000006
  1O   2dyz       0.000079  0.000200 -0.000034  0.000007 -0.000001  0.000006
  1O   2dx2y2     0.001056 -0.000016  0.002496 -0.000046  0.000014  0.000028
  1O   2dxy      -0.000440 -0.000282 -0.001078  0.000006 -0.000006 -0.000011
  1O   1f0        0.000003  0.000010  0.000040 -0.000002  0.000000 -0.000001
  1O   1f+1       0.000109 -0.000039  0.000399 -0.000002  0.000001  0.000001
  1O   1f-1      -0.000026 -0.000002 -0.000090  0.000000  0.000000  0.000000
  1O   1f+2      -0.000001 -0.000045 -0.000068  0.000003 -0.000001  0.000000
  1O   1f-2       0.000009 -0.000058 -0.000065 -0.000002  0.000001 -0.000000
  1O   1f+3       0.000112 -0.000012  0.000516 -0.000002  0.000001  0.000002
  1O   1f-3      -0.000080 -0.000039 -0.000423  0.000004 -0.000002 -0.000001
  2O   1s         0.000699  0.435379  0.000065  0.000000  0.000000  0.000000
  2O   2s         0.001042  0.639694  0.000245 -0.000003  0.000002  0.000001
  2O   3s         0.000145  0.033956 -0.002624  0.000058 -0.000021 -0.000012
  2O   4s        -0.001341 -0.024751  0.008352 -0.000240  0.000078  0.000055
  2O   5s        -0.001688  0.009326  0.002827  0.000146 -0.000248 -0.000161
  2O   1pz        0.000001  0.000779 -0.000274 -0.000015  0.000007  0.000000
  2O   1px       -0.000014  0.001039 -0.000365  0.000001 -0.000005 -0.000001
  2O   1py        0.000003 -0.001384  0.000499 -0.000003 -0.000007 -0.000003
  2O   2pz       -0.000279 -0.001914  0.002674  0.000035 -0.000035 -0.000008
  2O   2px       -0.000611 -0.002532  0.003630 -0.000047  0.000007  0.000009
  2O   2py        0.000578  0.003640 -0.005004  0.000068 -0.000011  0.000008
  2O   3pz        0.000074  0.000331  0.000190 -0.000159  0.000051 -0.000015
  2O   3px       -0.001318  0.000695 -0.000334  0.000076 -0.000071 -0.000083
  2O   3py       -0.000129 -0.000531 -0.000576  0.000281 -0.000056  0.000010
  2O   1dz2       0.000043 -0.000044  0.000011  0.000000 -0.000000 -0.000001
  2O   1dxz       0.000020  0.000113 -0.000010  0.000004 -0.000002  0.000001
  2O   1dyz       0.000087 -0.000144  0.000040 -0.000005 -0.000000 -0.000001
  2O   1dx2y2     0.000013 -0.000117  0.000029 -0.000005  0.000002  0.000001
  2O   1dxy      -0.000008 -0.000214  0.000031 -0.000002 -0.000001 -0.000001
  2O   2dz2      -0.000056  0.000257 -0.000822  0.000013 -0.000005  0.000003
  2O   2dxz      -0.000186 -0.000465  0.001126 -0.000022  0.000005 -0.000007
  2O   2dyz      -0.000256  0.000632 -0.001542  0.000042 -0.000004  0.000005
  2O   2dx2y2    -0.000107  0.000423 -0.000719  0.000032 -0.000008 -0.000003
  2O   2dxy       0.000273  0.000884 -0.002190  0.000035 -0.000004  0.000003
  2O   1f0       -0.000051  0.000086 -0.000258  0.000003 -0.000001  0.000000
  2O   1f+1      -0.000033  0.000014 -0.000013  0.000001 -0.000001 -0.000000
  2O   1f-1      -0.000008 -0.000016  0.000071 -0.000001  0.000001  0.000000
  2O   1f+2      -0.000060  0.000044 -0.000085  0.000002 -0.000001  0.000001
  2O   1f-2       0.000002  0.000108 -0.000483  0.000003 -0.000000  0.000000
  2O   1f+3      -0.000043 -0.000096  0.000495 -0.000004  0.000001  0.000000
  2O   1f-3      -0.000014 -0.000026  0.000168 -0.000003  0.000002  0.000001
  3H   1s        -0.000309  0.000250  0.001018  0.000015 -0.000006 -0.000003
  3H   2s        -0.000669  0.000716  0.001754 -0.000341  0.000249 -0.000028
  3H   3s         0.001648 -0.000722  0.003540 -0.000548  0.000153  0.000166
  3H   1pz       -0.000037  0.000104 -0.000382 -0.000022  0.000011  0.000006
  3H   1px       -0.000142  0.000134  0.001485 -0.000028  0.000023 -0.000002
  3H   1py        0.000012 -0.000071  0.001712 -0.000054  0.000035 -0.000003
  4Ag  1s        -0.000013  0.000008 -0.000001  0.195523 -0.000013 -0.000015
  4Ag  2s         0.000034 -0.000022  0.000003 -0.706608  0.000046  0.000054
  4Ag  3s        -0.000112  0.000075 -0.000010  0.920786 -0.000109 -0.000098
  4Ag  4s         0.000172 -0.000121  0.000018  0.397020  0.000089  0.000023
  4Ag  5s        -0.000146  0.000120 -0.000204  0.007954 -0.000091 -0.000015
  4Ag  6s        -0.000161  0.000128  0.000438 -0.002437 -0.000003 -0.000003
  4Ag  1pz        0.000026 -0.000007  0.000000  0.000119  0.026798  0.310993
  4Ag  1px        0.000010  0.000004  0.000000  0.000005  0.271570 -0.782383
  4Ag  1py        0.000032 -0.000018  0.000004 -0.000002  0.833292  0.244989
  4Ag  2pz       -0.000085  0.000040  0.000006  0.000113  0.004786  0.056055
  4Ag  2px       -0.000026 -0.000000  0.000002  0.000027  0.048954 -0.141056
  4Ag  2py       -0.000106  0.000064 -0.000003  0.000090  0.150205  0.044152
  4Ag  3pz        0.000187 -0.000140 -0.000008 -0.000145  0.000239  0.001956
  4Ag  3px        0.000044 -0.000037  0.000016 -0.000048  0.001720 -0.004869
  4Ag  3py        0.000235 -0.000157  0.000036 -0.000167  0.005291  0.001553
  4Ag  4pz        0.000066 -0.000036 -0.000151  0.000068 -0.000030 -0.000312
  4Ag  4px        0.000007 -0.000013 -0.000151  0.000031 -0.000277  0.000784
  4Ag  4py        0.000066 -0.000076 -0.000341  0.000089 -0.000848 -0.000252
  4Ag  1dz2      -0.000005 -0.000009 -0.000010 -0.000006 -0.000007  0.000032
  4Ag  1dxz      -0.000005 -0.000014  0.000006  0.000000  0.000021 -0.000063
  4Ag  1dyz      -0.000014  0.000004  0.000009  0.000014  0.000063  0.000025
  4Ag  1dx2y2     0.000009 -0.000013 -0.000010 -0.000015 -0.000008 -0.000010
  4Ag  1dxy      -0.000012 -0.000001  0.000015  0.000011  0.000009 -0.000014
  4Ag  2dz2       0.000019  0.000022  0.000032 -0.000016  0.000013  0.000019
  4Ag  2dxz       0.000017  0.000038 -0.000025 -0.000008  0.000023 -0.000038
  4Ag  2dyz       0.000063 -0.000028 -0.000040 -0.000033  0.000070  0.000026
  4Ag  2dx2y2    -0.000041  0.000045  0.000040  0.000011 -0.000014 -0.000012
  4Ag  2dxy       0.000039 -0.000004 -0.000055 -0.000006  0.000009 -0.000007
  4Ag  3dz2      -0.000040 -0.000012 -0.000058  0.000018 -0.000001 -0.000008
  4Ag  3dxz      -0.000035 -0.000022  0.000060  0.000015 -0.000021  0.000008
  4Ag  3dyz      -0.000190  0.000126  0.000115  0.000075 -0.000079 -0.000025
  4Ag  3dx2y2     0.000122 -0.000099 -0.000097 -0.000038  0.000047  0.000018
  4Ag  3dxy      -0.000069  0.000040  0.000115  0.000022 -0.000031  0.000005
  4Ag  1f0       -0.000001  0.000001  0.000001  0.000002 -0.000002 -0.000005
  4Ag  1f+1       0.000000 -0.000001 -0.000000  0.000002 -0.000005  0.000004
  4Ag  1f-1       0.000002 -0.000002 -0.000000  0.000003 -0.000013 -0.000001
  4Ag  1f+2      -0.000004  0.000002  0.000002  0.000001 -0.000003 -0.000002
  4Ag  1f-2       0.000001 -0.000002 -0.000002  0.000000 -0.000001 -0.000000
  4Ag  1f+3       0.000001 -0.000001 -0.000001 -0.000002  0.000010 -0.000007
  4Ag  1f-3       0.000002 -0.000001 -0.000001 -0.000001  0.000007  0.000009
                      6         7         8         9        10        11   
                  -2.41471  -1.05552  -0.97063  -0.57294  -0.46147  -0.42636
                   2.00000   2.00000   2.00000   2.00000   2.00000   2.00000
                  --------  --------  --------  --------  --------  --------
  0C   1s        -0.000000 -0.067222 -0.000201  0.063153  0.031903 -0.000336
  0C   2s        -0.000002 -0.141721 -0.000444  0.136277  0.069909 -0.000736
  0C   3s        -0.000078  0.227114  0.000400 -0.227791 -0.126099  0.000275
  0C   4s         0.000484  0.145197  0.002872 -0.239437 -0.111986  0.005734
  0C   5s         0.000072  0.015445 -0.000247 -0.035978  0.037932  0.009973
  0C   1pz       -0.000001 -0.031940  0.045392 -0.043644  0.049077  0.065603
  0C   1px        0.000001  0.036001  0.163384  0.124202 -0.149406  0.202987
  0C   1py       -0.000006  0.045644 -0.103443  0.156929 -0.177856 -0.155684
  0C   2pz       -0.000038 -0.011685  0.016291 -0.030090  0.028998  0.036057
  0C   2px       -0.000086  0.014142  0.059036  0.078359 -0.095709  0.105310
  0C   2py        0.000156  0.018144 -0.037446  0.099163 -0.121106 -0.086653
  0C   3pz       -0.000013 -0.000886  0.001583 -0.015835 -0.004712 -0.004433
  0C   3px       -0.000155  0.001687  0.006123  0.029499 -0.006647 -0.027552
  0C   3py       -0.000126  0.001325 -0.003380  0.039809 -0.019729  0.003726
  0C   1dz2      -0.000006 -0.010044 -0.003131  0.004140  0.003097 -0.001650
  0C   1dxz       0.000008  0.004397 -0.003916  0.000407 -0.000068 -0.002160
  0C   1dyz       0.000001 -0.006968  0.006791  0.000970  0.003701  0.004149
  0C   1dx2y2    -0.000005  0.005836  0.014552  0.000216 -0.001655  0.008269
  0C   1dxy      -0.000003 -0.010659  0.004281 -0.005433  0.002709  0.002263
  0C   2dz2      -0.000043 -0.004981 -0.000676 -0.001510 -0.001918  0.001384
  0C   2dxz      -0.000003  0.002965 -0.000267  0.001094  0.000022  0.003099
  0C   2dyz      -0.000060 -0.002932  0.000924 -0.001888 -0.001068 -0.005125
  0C   2dx2y2     0.000005  0.002917  0.002976  0.001616  0.003459 -0.009778
  0C   2dxy      -0.000057 -0.006667  0.001108 -0.004090 -0.001066 -0.002522
  0C   1f0        0.000008  0.001646 -0.001834  0.000217 -0.001317 -0.002274
  0C   1f+1      -0.000003 -0.002322 -0.002439 -0.000339  0.002292 -0.002297
  0C   1f-1      -0.000002  0.000557  0.001140 -0.001047  0.000703  0.001850
  0C   1f+2       0.000002  0.001580  0.000062  0.000122 -0.002061  0.001186
  0C   1f-2       0.000012  0.003584 -0.002093 -0.001232 -0.001750 -0.002332
  0C   1f+3      -0.000017 -0.007753 -0.000284  0.001582  0.006031  0.000500
  0C   1f-3       0.000003  0.002348  0.002699 -0.001246 -0.001309  0.004496
  1O   1s        -0.000000 -0.060022 -0.070002 -0.030251 -0.029013  0.025319
  1O   2s        -0.000002 -0.141236 -0.165264 -0.072211 -0.069425  0.060541
  1O   3s         0.000022  0.201202  0.238656  0.109352  0.104896 -0.091321
  1O   4s        -0.000099  0.262887  0.318301  0.153949  0.157098 -0.133956
  1O   5s         0.000128  0.087936  0.126947  0.107587  0.134264 -0.119290
  1O   1pz       -0.000004 -0.004546  0.002485 -0.016019  0.035160  0.027522
  1O   1px        0.000003 -0.077021 -0.072460  0.100933  0.193489 -0.276521
  1O   1py        0.000003  0.019978  0.007714  0.047832 -0.162854 -0.014790
  1O   2pz        0.000025 -0.003823  0.001273 -0.013848  0.028450  0.021025
  1O   2px        0.000017 -0.060395 -0.061485  0.076630  0.145016 -0.215697
  1O   2py       -0.000007  0.015992  0.007546  0.041462 -0.130863 -0.011629
  1O   3pz       -0.000038 -0.000532  0.000449 -0.004003  0.019478  0.016201
  1O   3px        0.000031 -0.006044 -0.007525  0.043856  0.095361 -0.146576
  1O   3py        0.000064  0.001738  0.000407  0.012325 -0.082946 -0.009615
  1O   1dz2       0.000000 -0.002039 -0.002056  0.001155  0.002756 -0.003389
  1O   1dxz      -0.000000  0.000358 -0.000148  0.000647 -0.001005 -0.000742
  1O   1dyz       0.000001  0.000131  0.000231 -0.000113  0.000394 -0.000007
  1O   1dx2y2     0.000000  0.003488  0.003823 -0.002707 -0.002773  0.005819
  1O   1dxy       0.000001 -0.001843 -0.001103 -0.001840  0.005168 -0.000472
  1O   2dz2       0.000003 -0.005417 -0.004700  0.003081  0.006355 -0.007459
  1O   2dxz      -0.000003  0.001047  0.000050  0.002055 -0.003647 -0.001366
  1O   2dyz      -0.000001 -0.000105  0.001391 -0.000370  0.001577  0.000682
  1O   2dx2y2    -0.000009  0.008811  0.009847 -0.007102 -0.004793  0.013984
  1O   2dxy      -0.000000 -0.004911 -0.003040 -0.006002  0.015378 -0.000954
  1O   1f0       -0.000000  0.000175 -0.000062  0.000264 -0.000382 -0.000186
  1O   1f+1      -0.000000  0.001392  0.001103 -0.000646 -0.001170  0.001404
  1O   1f-1       0.000000 -0.000355 -0.000144 -0.000336  0.000863 -0.000041
  1O   1f+2       0.000001 -0.000159 -0.000071 -0.000456  0.000790  0.000227
  1O   1f-2      -0.000001  0.000290 -0.000408  0.000291 -0.000401 -0.000733
  1O   1f+3      -0.000000  0.001246  0.001769 -0.001702  0.000080  0.002770
  1O   1f-3       0.000002 -0.001202 -0.000773 -0.001327  0.003458 -0.000452
  2O   1s        -0.000000 -0.060968  0.068604 -0.033730 -0.025093 -0.026790
  2O   2s        -0.000001 -0.143474  0.161968 -0.080496 -0.060054 -0.064077
  2O   3s         0.000018  0.204458 -0.233705  0.121599  0.090688  0.096984
  2O   4s        -0.000085  0.266173 -0.312421  0.172609  0.136752  0.140357
  2O   5s        -0.000211  0.090981 -0.126257  0.120429  0.122558  0.129710
  2O   1pz       -0.000003  0.030530 -0.031004 -0.045372 -0.068005 -0.129358
  2O   1px        0.000005  0.044882 -0.028549  0.014237 -0.211068 -0.100445
  2O   1py        0.000001 -0.060128  0.057914  0.114959  0.077450  0.236016
  2O   2pz       -0.000001  0.023760 -0.026097 -0.034303 -0.050721 -0.100468
  2O   2px       -0.000027  0.035273 -0.025744  0.017214 -0.165891 -0.080412
  2O   2py        0.000083 -0.047230  0.049418  0.089038  0.053494  0.183436
  2O   3pz       -0.000153  0.002511 -0.003678 -0.019132 -0.031138 -0.069675
  2O   3px       -0.000077  0.003653 -0.002825 -0.002046 -0.107000 -0.047829
  2O   3py        0.000152 -0.005172  0.006754  0.046722  0.035955  0.127465
  2O   1dz2       0.000001 -0.001040  0.000781  0.000580  0.001425  0.001574
  2O   1dxz       0.000005  0.001718 -0.001480  0.000087 -0.002869 -0.002165
  2O   1dyz      -0.000001 -0.002081  0.002428  0.002153  0.001455  0.004295
  2O   1dx2y2    -0.000002 -0.001104  0.001782  0.003155 -0.002142  0.002741
  2O   1dxy      -0.000001 -0.003305  0.002768  0.000320  0.004558  0.003888
  2O   2dz2       0.000001 -0.003078  0.001617  0.001454  0.003940  0.003581
  2O   2dxz      -0.000028  0.004157 -0.004088  0.000965 -0.007361 -0.005341
  2O   2dyz       0.000023 -0.005612  0.005537  0.005882  0.002269  0.009707
  2O   2dx2y2     0.000014 -0.002809  0.004867  0.009354 -0.008215  0.006453
  2O   2dxy       0.000025 -0.008347  0.007436 -0.000521  0.012177  0.009767
  2O   1f0        0.000002 -0.001112  0.000692  0.000416  0.000920  0.000890
  2O   1f+1      -0.000001 -0.000310 -0.000161 -0.000092  0.000215 -0.000253
  2O   1f-1      -0.000000  0.000299 -0.000053  0.000053 -0.000388  0.000024
  2O   1f+2       0.000001 -0.000523  0.000595  0.001540 -0.001188  0.000890
  2O   1f-2       0.000002 -0.001341  0.001291  0.000216  0.001675  0.001915
  2O   1f+3      -0.000002  0.001277 -0.001594 -0.000810 -0.000894 -0.002204
  2O   1f-3      -0.000001  0.000499  0.000182  0.001953 -0.002940  0.000322
  3H   1s         0.000003  0.024386 -0.003979 -0.153581  0.070668  0.002547
  3H   2s        -0.000065  0.022623 -0.003690 -0.190357  0.088741  0.001804
  3H   3s        -0.000118 -0.000356  0.000570 -0.034563  0.044598 -0.004865
  3H   1pz       -0.000008 -0.001447  0.001372  0.003284 -0.001485  0.002199
  3H   1px       -0.000005  0.002741  0.002891 -0.014273  0.004940  0.006311
  3H   1py       -0.000014  0.004187 -0.003462 -0.016739  0.005664 -0.005420
  4Ag  1s         0.000043 -0.000071  0.000017 -0.000204  0.000200 -0.000089
  4Ag  2s        -0.000156  0.000271 -0.000063  0.000767 -0.000800  0.000345
  4Ag  3s         0.000277 -0.000461  0.000103 -0.001597  0.000846 -0.000574
  4Ag  4s        -0.000051 -0.000202  0.000072  0.000203  0.002666 -0.000429
  4Ag  5s         0.000025  0.000400 -0.000219 -0.000569 -0.009766  0.000997
  4Ag  6s         0.000004  0.000666 -0.000036  0.003622  0.007757  0.001389
  4Ag  1pz       -0.819426  0.000357 -0.000122  0.000940 -0.000575  0.000506
  4Ag  1px       -0.288068  0.000116 -0.000160  0.000095 -0.000035  0.000921
  4Ag  1py        0.120206  0.000366  0.000002  0.000481 -0.000602 -0.000372
  4Ag  2pz       -0.147689  0.000036 -0.000012 -0.000308 -0.001022  0.000107
  4Ag  2px       -0.051919  0.000008 -0.000008 -0.000063 -0.000212 -0.000177
  4Ag  2py        0.021704  0.000022 -0.000010 -0.000386 -0.001180  0.000274
  4Ag  3pz       -0.005140 -0.000376  0.000155  0.000102  0.004721 -0.000706
  4Ag  3px       -0.001810 -0.000105  0.000138  0.000128  0.000892  0.000082
  4Ag  3py        0.000696 -0.000336  0.000075  0.000811  0.005098 -0.000793
  4Ag  4pz        0.000827 -0.000384  0.000169 -0.002791 -0.004909 -0.002864
  4Ag  4px        0.000294 -0.000136  0.000405 -0.000335 -0.001461 -0.006209
  4Ag  4py       -0.000107 -0.000371 -0.000237 -0.001611 -0.004594  0.003083
  4Ag  1dz2      -0.000080  0.000053 -0.000080  0.001371 -0.002187  0.009827
  4Ag  1dxz      -0.000030  0.000089 -0.000143  0.000606 -0.000329  0.016521
  4Ag  1dyz      -0.000003  0.000247 -0.000031  0.001573 -0.007622 -0.002236
  4Ag  1dx2y2    -0.000007 -0.000109 -0.000072 -0.000041  0.004658  0.008242
  4Ag  1dxy      -0.000003  0.000072 -0.000114 -0.000292 -0.002111  0.009837
  4Ag  2dz2      -0.000060  0.000022 -0.000000  0.000694 -0.001289  0.005213
  4Ag  2dxz      -0.000034  0.000026 -0.000012  0.000279 -0.000424  0.008824
  4Ag  2dyz      -0.000030  0.000114 -0.000041  0.000976 -0.004362 -0.001191
  4Ag  2dx2y2     0.000002 -0.000062  0.000007 -0.000189  0.002420  0.004542
  4Ag  2dxy      -0.000010  0.000036 -0.000015 -0.000032 -0.000975  0.005285
  4Ag  3dz2       0.000019  0.000101 -0.000201  0.000935 -0.000788  0.004050
  4Ag  3dxz       0.000018  0.000173 -0.000337  0.000445  0.000349  0.006650
  4Ag  3dyz       0.000045  0.000415 -0.000003  0.000541 -0.003070 -0.000804
  4Ag  3dx2y2    -0.000015 -0.000158 -0.000193  0.000417  0.002367  0.002994
  4Ag  3dxy       0.000017  0.000109 -0.000258 -0.000479 -0.001265  0.003894
  4Ag  1f0        0.000009  0.000007  0.000002 -0.000004 -0.000008 -0.000014
  4Ag  1f+1       0.000005 -0.000006  0.000008 -0.000018  0.000004 -0.000025
  4Ag  1f-1      -0.000001 -0.000013  0.000006 -0.000037  0.000038 -0.000008
  4Ag  1f+2       0.000007  0.000014  0.000005  0.000012 -0.000042 -0.000023
  4Ag  1f-2      -0.000005 -0.000010  0.000013 -0.000006  0.000015 -0.000027
  4Ag  1f+3      -0.000002 -0.000005  0.000005  0.000009  0.000013 -0.000009
  4Ag  1f-3       0.000004 -0.000005 -0.000007 -0.000000  0.000017  0.000014
                     12        13        14        15        16        17   
                  -0.41111  -0.40211  -0.40208  -0.40191  -0.40189  -0.40083
                   2.00000   2.00000   2.00000   2.00000   2.00000   2.00000
                  --------  --------  --------  --------  --------  --------
  0C   1s        -0.003432  0.000221  0.000212 -0.000081  0.000185 -0.001884
  0C   2s        -0.007358  0.000460  0.000461 -0.000184  0.000403 -0.004067
  0C   3s         0.011369  0.000044 -0.000460  0.000667 -0.000538  0.007383
  0C   4s         0.015561 -0.005274 -0.003073 -0.001094 -0.002100  0.005859
  0C   5s         0.004244  0.006440  0.002046  0.001459  0.000581 -0.010609
  0C   1pz        0.238494 -0.004534 -0.001379 -0.001421  0.000021  0.089948
  0C   1px       -0.018200  0.000547  0.005661  0.001593  0.005011 -0.001527
  0C   1py        0.077587  0.001388 -0.005034  0.000564 -0.004964  0.033911
  0C   2pz        0.195041 -0.003733 -0.000986 -0.001528  0.000112  0.073820
  0C   2px       -0.012143  0.000540  0.005023  0.001286  0.003477 -0.001269
  0C   2py        0.065270  0.001384 -0.004140  0.000991 -0.003975  0.026853
  0C   3pz        0.085004  0.001849  0.000549 -0.000118 -0.000098  0.032022
  0C   3px       -0.007650 -0.004467  0.001344 -0.001952  0.000554 -0.001867
  0C   3py        0.023836 -0.002932 -0.003008 -0.002041 -0.000506  0.009601
  0C   1dz2      -0.005605  0.000104  0.000185 -0.000013  0.000111 -0.002287
  0C   1dxz       0.005001 -0.000097  0.000123  0.000017  0.000046  0.002138
  0C   1dyz       0.004068 -0.000063 -0.000035 -0.000027  0.000058  0.001301
  0C   1dx2y2    -0.001941  0.000022  0.000385  0.000107  0.000367 -0.000370
  0C   1dxy       0.000714 -0.000257  0.000153 -0.000121  0.000193 -0.000208
  0C   2dz2      -0.005684  0.000771  0.000410  0.000468  0.000115 -0.002171
  0C   2dxz       0.004301 -0.000215  0.000018 -0.000133 -0.000052  0.001697
  0C   2dyz       0.005394  0.000263  0.000391 -0.000008  0.000074  0.001313
  0C   2dx2y2    -0.002301 -0.000165  0.000717 -0.000186 -0.000158 -0.000554
  0C   2dxy       0.000653 -0.000061  0.000269 -0.000232  0.000127 -0.000045
  0C   1f0       -0.004356  0.000128 -0.000050  0.000062 -0.000061 -0.001644
  0C   1f+1       0.002698 -0.000017 -0.000162 -0.000032 -0.000087  0.000944
  0C   1f-1      -0.004147  0.000092  0.000164  0.000018  0.000108 -0.001699
  0C   1f+2       0.002852 -0.000090 -0.000049 -0.000010 -0.000028  0.001290
  0C   1f-2      -0.002788  0.000011 -0.000078 -0.000001 -0.000060 -0.001132
  0C   1f+3      -0.001728  0.000117  0.000129  0.000024  0.000090 -0.000856
  0C   1f-3      -0.000968 -0.000050  0.000064 -0.000017  0.000096 -0.000399
  1O   1s        -0.000947 -0.000290  0.000791  0.000131  0.000685 -0.000176
  1O   2s        -0.002338 -0.000687  0.001885  0.000308  0.001634 -0.000450
  1O   3s         0.004407  0.000887 -0.002726 -0.000424 -0.002404  0.001011
  1O   4s         0.000718  0.002529 -0.005002 -0.000747 -0.003995 -0.000345
  1O   5s         0.021785  0.002110 -0.005446  0.000436 -0.003619  0.007226
  1O   1pz        0.217338 -0.004686  0.000871 -0.001059  0.000686  0.085225
  1O   1px        0.024534  0.000262 -0.007337 -0.001968 -0.006564  0.002208
  1O   1py        0.061128 -0.001763  0.000460  0.000380  0.000425  0.025690
  1O   2pz        0.182019 -0.003690  0.000503 -0.000956  0.000593  0.071358
  1O   2px        0.018579 -0.000083 -0.005439 -0.001762 -0.005218  0.001599
  1O   2py        0.051430 -0.001311  0.000105  0.000313  0.000231  0.021525
  1O   3pz        0.109228 -0.003760  0.001984 -0.000130  0.000924  0.042920
  1O   3px        0.008545 -0.000857 -0.002848 -0.000973 -0.002580 -0.001504
  1O   3py        0.032837 -0.001655  0.001385  0.000452  0.001331  0.012551
  1O   1dz2      -0.000040  0.000009 -0.000096 -0.000029 -0.000081 -0.000108
  1O   1dxz      -0.005379  0.000103  0.000025  0.000039  0.000002 -0.002062
  1O   1dyz       0.001193 -0.000009 -0.000021 -0.000011 -0.000013  0.000466
  1O   1dx2y2    -0.000921 -0.000019  0.000161  0.000039  0.000157 -0.000239
  1O   1dxy      -0.001378  0.000004 -0.000013 -0.000026  0.000000 -0.000650
  1O   2dz2      -0.000679  0.000047 -0.000006 -0.000007 -0.000134 -0.000507
  1O   2dxz      -0.017211  0.000305 -0.000018  0.000051 -0.000004 -0.006592
  1O   2dyz       0.003915 -0.000213  0.000206  0.000007  0.000151  0.001158
  1O   2dx2y2    -0.002309  0.000261  0.000201  0.000134  0.000148 -0.000294
  1O   2dxy      -0.004541 -0.000043  0.000050 -0.000076 -0.000018 -0.002041
  1O   1f0       -0.002148  0.000049 -0.000000  0.000009 -0.000008 -0.000803
  1O   1f+1       0.000279 -0.000005  0.000025  0.000010  0.000022  0.000152
  1O   1f-1       0.000111 -0.000002  0.000020  0.000002  0.000004  0.000017
  1O   1f+2       0.002820 -0.000042 -0.000010 -0.000010 -0.000008  0.001097
  1O   1f-2      -0.001381  0.000022 -0.000010  0.000004 -0.000012 -0.000523
  1O   1f+3      -0.000834  0.000006  0.000072  0.000011  0.000064 -0.000273
  1O   1f-3      -0.000744 -0.000006 -0.000012 -0.000020 -0.000013 -0.000372
  2O   1s        -0.000723  0.000075 -0.001038 -0.000013 -0.000914 -0.000694
  2O   2s        -0.001785  0.000188 -0.002478 -0.000034 -0.002180 -0.001691
  2O   3s         0.003329 -0.000409  0.003592  0.000089  0.003161  0.002928
  2O   4s         0.000487  0.000355  0.006667 -0.000056  0.005606  0.002380
  2O   5s         0.022414 -0.001490  0.007538  0.000186  0.005396  0.011532
  2O   1pz        0.201183 -0.001579 -0.009843 -0.000669 -0.007291  0.077337
  2O   1px       -0.036834  0.001196 -0.003538  0.000326 -0.003927 -0.012428
  2O   1py        0.100664 -0.003399  0.003301 -0.000877  0.004390  0.035632
  2O   2pz        0.169056 -0.001232 -0.007597 -0.000719 -0.005803  0.064832
  2O   2px       -0.029484  0.000948 -0.002362  0.000314 -0.002935 -0.010094
  2O   2py        0.082328 -0.002805  0.001960 -0.000731  0.003155  0.029012
  2O   3pz        0.103573 -0.001012 -0.006196  0.000215 -0.004204  0.039865
  2O   3px       -0.015884  0.000844 -0.001368 -0.000365 -0.001868 -0.005591
  2O   3py        0.047518 -0.002204 -0.000597 -0.000473  0.000188  0.014560
  2O   1dz2       0.003748 -0.000071 -0.000014 -0.000034  0.000014  0.001397
  2O   1dxz       0.002383 -0.000002 -0.000122  0.000004 -0.000100  0.000946
  2O   1dyz      -0.002805  0.000016  0.000184  0.000016  0.000164 -0.001081
  2O   1dx2y2     0.001418 -0.000021  0.000034  0.000012  0.000051  0.000578
  2O   1dxy       0.002028 -0.000067  0.000089 -0.000031  0.000115  0.000685
  2O   2dz2       0.011449 -0.000028 -0.000327  0.000055 -0.000143  0.004076
  2O   2dxz       0.007671 -0.000111 -0.000266 -0.000088 -0.000261  0.002842
  2O   2dyz      -0.009324 -0.000011  0.000149  0.000013  0.000132 -0.004091
  2O   2dx2y2     0.003825 -0.000074  0.000110 -0.000047  0.000069  0.001518
  2O   2dxy       0.006064 -0.000353 -0.000114 -0.000125  0.000025  0.001782
  2O   1f0       -0.000203  0.000012  0.000020  0.000005  0.000024 -0.000102
  2O   1f+1       0.002077 -0.000023 -0.000056 -0.000008 -0.000039  0.000754
  2O   1f-1      -0.002457  0.000036  0.000045  0.000017  0.000032 -0.000944
  2O   1f+2      -0.000443 -0.000000  0.000045 -0.000001  0.000030 -0.000153
  2O   1f-2      -0.001560 -0.000013  0.000070 -0.000008  0.000062 -0.000655
  2O   1f+3      -0.001650  0.000033 -0.000023 -0.000000 -0.000035 -0.000606
  2O   1f-3      -0.000107  0.000019  0.000000  0.000014 -0.000015  0.000007
  3H   1s         0.001705 -0.001462 -0.000231 -0.000790  0.000140 -0.002468
  3H   2s         0.004990 -0.002185 -0.000011 -0.000464 -0.000055 -0.001449
  3H   3s         0.000220 -0.007818 -0.002171 -0.003984  0.000238  0.000510
[...]
 2 O  f+3             9.9       8.1       5.7       0.1      19.3       3.9
 2 O  f-3             2.0       0.1      24.5       0.2       3.0       5.8
 3 H  s               0.0       0.0       0.1       1.1       1.3       0.2
 3 H  px              0.0       0.0       0.1       0.0       0.3       0.0
 3 H  py              0.0       0.0       0.3       0.1       0.0       0.0
 4 Ag s               0.0       0.0       0.1       0.0       0.1       0.0
 4 Ag py              0.0       0.0       0.2       0.1       0.1       0.0
 4 Ag dyz             0.0       0.0       0.1       0.0       0.1       0.0
 4 Ag dxy             0.0       0.0       0.1       0.0       0.1       0.0

                    120       121       122       123       124       125   
                   6.10019   6.11805   6.32524   6.40514   6.42524   6.44507
                   0.00000   0.00000   0.00000   0.00000   0.00000   0.00000
                  --------  --------  --------  --------  --------  --------
 0 C  s               0.0       0.0       0.0       0.0       0.1       4.6
 0 C  pz              0.1       1.0       0.0       0.0       0.3       0.1
 0 C  px              0.0       0.0       0.0       0.3       0.0       0.5
 0 C  py              0.0       0.3       0.0       0.1       0.1       0.3
 0 C  dz2             1.0       0.1       0.1       0.0       0.1       1.8
 0 C  dxz             2.3       1.5       0.3       0.0       0.1       0.4
 0 C  dyz             1.9       0.0       0.2       0.1       0.1       0.5
 0 C  dx2y2           1.3       0.1       0.1       0.2       0.0       0.1
 0 C  dxy             0.2       0.4       0.0       0.0       0.2       4.6
 0 C  f0              0.0       2.1       0.0       0.0       0.3       0.0
 0 C  f+1             1.0       0.4       0.1       0.1       0.3       0.0
 0 C  f-1             1.8       0.5       0.2       0.0       0.0       0.0
 0 C  f+2             0.9       0.9       0.2       0.0       0.0       0.1
 0 C  f-2             0.5       3.1       0.0       0.0       0.7       0.0
 0 C  f+3             0.0       2.0       0.0       0.0       0.4       0.0
 0 C  f-3             1.3       0.0       0.2       0.0       0.0       0.3
 1 O  s               0.0       0.0       0.0       0.1       0.0       1.1
 1 O  pz              0.1       1.4       0.0       0.0       0.1       0.0
 1 O  px              0.0       0.1       0.0       0.0       0.0       1.5
 1 O  py              0.0       0.4       0.0       0.0       0.0       0.2
 1 O  dz2             2.9       1.7      27.1      17.0      13.5       9.6
 1 O  dxz             2.8      17.6       1.9       2.8       2.9       4.4
 1 O  dyz             3.9       0.3      13.2      43.2      14.5       1.3
 1 O  dx2y2           2.5       0.9       4.7       9.0       3.9       8.8
 1 O  dxy             0.1       4.6       3.9       0.7       2.3       1.8
 1 O  f0              2.1       9.6       0.5       0.0       0.8       0.2
 1 O  f+1             2.7       2.2       0.5       0.7       2.0       3.3
 1 O  f-1             0.1       0.1       0.1       0.2       0.1       0.2
 1 O  f+2             0.3      13.2       0.1       0.1       2.7       0.0
 1 O  f-2             5.4       3.7       1.2       0.8       0.0       0.8
 1 O  f+3             3.8       3.7       0.8       0.2       0.4       5.6
 1 O  f-3             0.2       4.3       0.1       0.1       0.8       7.3
 2 O  s               0.0       0.0       0.0       0.4       0.0       1.0
 2 O  pz              1.2       0.4       0.1       0.0       0.1       0.2
 2 O  px              0.0       0.0       0.0       0.1       0.0       0.2
 2 O  py              0.3       0.1       0.0       0.1       0.1       1.1
 2 O  dz2             5.0       4.4       9.7       6.7      11.2      11.7
 2 O  dxz             7.2       1.4      22.8       3.1      25.5       0.4
 2 O  dyz             8.2       1.6       0.8       1.8       2.1      11.9
 2 O  dx2y2           4.9       0.5       0.0      10.1       0.0       0.2
 2 O  dxy             0.4       1.2       8.0       0.7       8.6       0.3
 2 O  f0              1.4       0.2       0.3       0.1       0.4       1.7
 2 O  f+1             3.8       0.2       0.5       0.1       0.0       0.1
 2 O  f-1            14.1       9.9       0.9       0.0       3.2       0.0
 2 O  f+2             0.9       1.2       0.0       0.0       0.5       3.3
 2 O  f-2             6.9       0.0       1.0       0.1       0.1       1.4
 2 O  f+3             1.8       1.0       0.4       0.1       0.1       3.9
 2 O  f-3             4.6       1.3       0.3       0.6       1.1       3.0

                    126       127       128       129       130       131   
                   6.52214   6.71665   6.75281   6.85046   6.91678   7.09956
                   0.00000   0.00000   0.00000   0.00000   0.00000   0.00000
                  --------  --------  --------  --------  --------  --------
 0 C  s               2.3       0.1       0.0       0.0       0.1       1.1
 0 C  pz              0.1       0.0       1.8       0.1       0.0       0.2
 0 C  px              0.1       0.1       0.1       0.0       0.2       0.4
 0 C  py              0.2       0.1       0.5       0.0       0.2       0.5
 0 C  dz2             0.8       0.0       0.5       0.2       0.1       0.2
 0 C  dxz             0.2       0.1       0.0       2.0       0.4       0.2
 0 C  dyz             0.4       0.3       0.3       0.9       0.7       0.1
 0 C  dx2y2           0.0       1.6       0.1       0.7       3.6       0.7
 0 C  dxy             2.1       0.1       0.0       0.3       0.2       1.7
 0 C  f0              0.1       0.0       0.0       0.1       0.0       0.1
 0 C  f-1             0.0       0.2       0.2       0.1       0.0       0.1
 0 C  f+2             0.0       1.8       0.0       0.2       0.4       0.0
 0 C  f-2             0.0       0.2       0.1       0.0       0.0       0.6
 0 C  f+3             0.3       2.2       0.1       0.0       0.4       1.6
 0 C  f-3             0.0       2.5       0.0       0.1       0.2       0.0
 1 O  s               0.6       0.1       0.0       0.0       0.3       0.3
 1 O  pz              0.0       0.1       0.3       1.1       0.3       0.0
 1 O  px              0.6       0.1       0.0       0.0       0.3       0.1
 1 O  py              0.3       0.3       0.1       0.3       0.9       0.1
 1 O  dz2             0.7       2.5       0.8       0.3       5.6       2.8
 1 O  dxz             3.7       4.3      15.4      33.4       6.1       2.1
 1 O  dyz             7.7       0.8       5.5       3.1       0.1       1.8
 1 O  dx2y2           2.0       2.6       3.4       4.1      29.0       0.6
 1 O  dxy            10.7      25.0       0.8       8.0       1.4      14.5
 1 O  f0              0.0       0.2       1.3       4.4       1.0       0.0
 1 O  f+1             1.9       0.0       0.1       0.0       0.6       0.2
 1 O  f-1             0.2       0.1       0.2       0.1       0.4       0.0
 1 O  f+2             0.2       0.2       1.3       3.8       1.5       0.4
 1 O  f-2             0.0       0.6       0.7       3.6       0.9       0.3
 1 O  f+3             0.9       2.4       0.8       2.8      10.1       0.0
 1 O  f-3             1.1       0.3       0.3       0.6       1.1       0.1
 2 O  s               0.9       0.0       0.0       0.0       0.7       0.7
 2 O  pz              0.2       0.1       0.8       0.5       0.0       0.0
 2 O  px              0.4       0.6       0.0       0.0       0.4       1.8
 2 O  py              1.0       0.5       0.2       0.1       0.1       0.5
 2 O  dz2            14.6       0.1      11.7       9.0       4.7       5.6
 2 O  dxz             6.7       6.4      15.6       1.4       0.5       5.5
 2 O  dyz             1.4       3.0      14.9       7.2      17.3       0.1
 2 O  dx2y2          30.9       1.4       9.9       3.9       4.1       1.0
 2 O  dxy             0.4      28.9       0.0       0.2       0.3      42.2
 2 O  f0              0.8       0.0       0.5       0.3       0.0       0.8
 2 O  f+1             0.2       0.2       0.9       1.1       0.0       0.8
 2 O  f-1             0.2       0.1       6.6       2.5       0.2       1.1
 2 O  f+2             1.3       1.9       0.3       0.2       1.7       0.3
 2 O  f-2             1.5       0.4       2.2       1.7       0.1       1.2
 2 O  f+3             1.4       0.3       0.5       0.5       0.8       3.2
 2 O  f-3             0.3       5.7       1.0       0.8       2.5       4.3
 3 H  s               0.1       0.2       0.0       0.0       0.0       0.0
 3 H  px              0.0       0.1       0.0       0.0       0.0       0.0
 3 H  py              0.0       0.2       0.0       0.0       0.1       0.0
 4 Ag s               0.2       0.2       0.0       0.0       0.1       0.1
 4 Ag py              0.1       0.2       0.0       0.0       0.1       0.1

                    132       133       134       135       136       137   
                   7.14206   7.18463  23.42754  33.40054  43.71114  43.88129
                   0.00000   0.00000   0.00000   0.00000   0.00000   0.00000
                  --------  --------  --------  --------  --------  --------
 0 C  s               0.9       4.9      95.9       0.0       0.0       0.0
 0 C  pz              0.1       0.2       0.0       0.0       0.0       0.0
 0 C  px              1.7       0.1       0.0       0.0       0.0       0.0
 0 C  py              1.0       0.7       0.0       0.0       0.0       0.0
 0 C  dz2             0.1       0.1       0.1       0.0       0.0       0.0
 0 C  dxz             0.1       0.3       0.0       0.0       0.0       0.0
 0 C  dyz             0.5       0.1       0.1       0.0       0.0       0.0
 0 C  dx2y2           2.0       0.1       0.0       0.0       0.0       0.0
 0 C  dxy             0.1       1.3       0.1       0.0       0.0       0.0
 0 C  f0              0.3       0.2       0.0       0.0       0.0       0.0
 0 C  f+1             0.7       0.0       0.0       0.0       0.0       0.0
 0 C  f-1             0.7       0.0       0.0       0.0       0.0       0.0
 0 C  f+2             0.6       0.0       0.0       0.0       0.0       0.0
 0 C  f-2             0.3       0.4       0.0       0.0       0.0       0.0
 0 C  f+3             1.0       1.4       0.0       0.0       0.0       0.0
 0 C  f-3             4.9       0.1       0.1       0.0       0.0       0.0
 1 O  s               1.6       0.9       0.8       0.0      68.5      31.5
 1 O  pz              0.3       0.2       0.0       0.0       0.0       0.0
 1 O  px              1.3       1.4       0.6       0.0       0.0       0.0
 1 O  py              2.0       0.1       0.1       0.0       0.0       0.0
 1 O  dz2             9.1       1.3       0.0       0.0       0.0       0.0
 1 O  dxz             0.5       1.2       0.0       0.0       0.0       0.0
 1 O  dyz             0.0       0.4       0.0       0.0       0.0       0.0
 1 O  dx2y2          11.8      10.2       0.1       0.0       0.0       0.0
 1 O  dxy            19.3       0.1       0.0       0.0       0.0       0.0
 1 O  f0              0.9       0.5       0.0       0.0       0.0       0.0
 1 O  f+1             2.2       1.7       0.0       0.0       0.0       0.0
 1 O  f-1             1.8       0.0       0.0       0.0       0.0       0.0
 1 O  f+2             1.1       0.6       0.0       0.0       0.0       0.0
 1 O  f-2             0.6       0.2       0.0       0.0       0.0       0.0
 1 O  f+3             2.0       5.7       0.0       0.0       0.0       0.0
 1 O  f-3            12.5       0.1       0.0       0.0       0.0       0.0
 2 O  s               0.1       2.2       0.8       0.0      31.5      68.4
 2 O  pz              0.0       0.4       0.1       0.0       0.0       0.0
 2 O  px              1.0       0.0       0.1       0.0       0.0       0.0
 2 O  py              0.1       1.7       0.5       0.0       0.0       0.0
 2 O  dz2             0.1       1.3       0.0       0.0       0.0       0.0
 2 O  dxz             0.4       0.0       0.0       0.0       0.0       0.0
 2 O  dyz             0.5      23.9       0.0       0.0       0.0       0.0
 2 O  dx2y2           2.4      24.8       0.0       0.0       0.0       0.0
 2 O  dxy             1.1       0.1       0.1       0.0       0.0       0.0
 2 O  f0              0.0       1.7       0.0       0.0       0.0       0.0
 2 O  f-1             0.6       0.1       0.0       0.0       0.0       0.0
 2 O  f+2             2.0       3.1       0.0       0.0       0.0       0.0
 2 O  f-2             1.8       1.4       0.0       0.0       0.0       0.0
 2 O  f+3             4.5       2.1       0.0       0.0       0.0       0.0
 2 O  f-3             3.1       2.0       0.0       0.0       0.0       0.0
 3 H  s               0.1       0.1       0.3       0.0       0.0       0.0
 3 H  px              0.0       0.1       0.1       0.0       0.0       0.0
 4 Ag s               0.0       0.1       0.0      99.9       0.0       0.0

                    138   
                 110.82343
                   0.00000
                  --------
 4 Ag s             100.0


                      *****************************
                      * MAYER POPULATION ANALYSIS *
                      *****************************

  NA   - Mulliken gross atomic population
  ZA   - Total nuclear charge
  QA   - Mulliken gross atomic charge
  VA   - Mayer's total valence
  BVA  - Mayer's bonded valence
  FA   - Mayer's free valence

  ATOM       NA         ZA         QA         VA         BVA        FA
  0 C      5.6758     6.0000     0.3242     4.1839     4.1839     0.0000
  1 O      8.5450     8.0000    -0.5450     1.8964     1.8964     0.0000
  2 O      8.5540     8.0000    -0.5540     1.9040     1.9040     0.0000
  3 H      0.9073     1.0000     0.0927     0.9738     0.9738     0.0000
  4 Ag    18.3179    19.0000     0.6821     0.6040     0.6040     0.0000

  Mayer bond orders larger than 0.100000
B(  0-C ,  1-O ) :   1.7930 B(  0-C ,  2-O ) :   1.4126 B(  0-C ,  3-H ) :   0.9538 
B(  2-O ,  4-Ag) :   0.4801 

-------
TIMINGS
-------

Total SCF time: 0 days 0 hours 0 min 4 sec 

Total time                  ....       4.236 sec
Sum of individual times     ....       4.021 sec  ( 94.9%)

Fock matrix formation       ....       3.689 sec  ( 87.1%)
  XC integration            ....       0.381 sec  ( 10.3% of F)
    Basis function eval.    ....       0.120 sec  ( 31.5% of XC)
    Density eval.           ....       0.072 sec  ( 19.0% of XC)
    XC-Functional eval.     ....       0.036 sec  (  9.5% of XC)
    XC-Potential eval.      ....       0.138 sec  ( 36.1% of XC)
Diagonalization             ....       0.004 sec  (  0.1%)
Density matrix formation    ....       0.000 sec  (  0.0%)
Population analysis         ....       0.017 sec  (  0.4%)
Initial guess               ....       0.002 sec  (  0.0%)
Orbital Transformation      ....       0.000 sec  (  0.0%)
Orbital Orthonormalization  ....       0.001 sec  (  0.0%)
DIIS solution               ....       0.001 sec  (  0.0%)
Grid generation             ....       0.307 sec  (  7.3%)

-------------------------   --------------------
FINAL SINGLE POINT ENERGY      -336.028497128816
-------------------------   --------------------

Starting the MM part

----------------------------------------------------------------------------
                                     MM                                         
------------------------------------------------------------------------------


Force Field is read from file          ... HCOO-Ag+_wat_mergeFF.ORCAFF.prms
PrintLevel                             ... 1


Do energy and gradient calculation
Coulomb interaction settings:
   Dielectricity constant              ...        1.000
   1-4 scaling factor                  ...        1.000
   Force Shifting (Coulomb Interaction)... YES
       Coulomb CutOff                  ...       12.000 Ang.
   Force Switching (LJ Interaction)    ... YES
       LJ Inner CutOff                 ...       10.000 Ang.
       LJ Outer CutOff                 ...       12.000 Ang.
Do compute NB interaction for all atoms

-------------------------   --------------------
FINAL SINGLE POINT ENERGY (MM)        0.000000000000
-------------------------   --------------------



------------------
CARTESIAN GRADIENT (MM)
------------------
   1   C   :    0.000000000    0.000000000    0.000000000
   2   O   :    0.000000000    0.000000000    0.000000000
   3   O   :    0.000000000    0.000000000    0.000000000
   4   H   :    0.000000000    0.000000000    0.000000000
   5   Ag  :    0.000000000    0.000000000    0.000000000



------------------
CARTESIAN GRADIENT (MM) kcal/mol
------------------
   1   C   :    0.000000000    0.000000000    0.000000000
   2   O   :    0.000000000    0.000000000    0.000000000
   3   O   :    0.000000000    0.000000000    0.000000000
   4   H   :    0.000000000    0.000000000    0.000000000
   5   Ag  :    0.000000000    0.000000000    0.000000000

Norm of the cartesian gradient     ...    0.000000000
RMS gradient                       ...    0.000000000
MAX gradient                       ...    0.000000000
Total MM time               ....       0.001 sec


-------------------------   --------------------
FINAL SINGLE POINT ENERGY (QM/MM)     -336.028497128816
-------------------------   --------------------

                                *** OPTIMIZATION RUN DONE ***

                            ***************************************
                            *     ORCA property calculations      *
                            ***************************************

                                    ---------------------
                                    Active property flags
                                    ---------------------
   (+) Dipole Moment


------------------------------------------------------------------------------
                       ORCA ELECTRIC PROPERTIES CALCULATION
------------------------------------------------------------------------------

Dipole Moment Calculation                       ... on
Quadrupole Moment Calculation                   ... off
Polarizability Calculation                      ... off
GBWName                                         ... HCOO-Ag+_wat.gbw
Electron density file                           ... HCOO-Ag+_wat.scfp
The origin for moment calculation is the CENTER OF MASS  = (-4.999912,  2.556714  1.555304)

-------------
DIPOLE MOMENT
-------------
                                X             Y             Z
Electronic contribution:      4.64939      49.89888      25.83884
Nuclear contribution   :     -1.85895     -11.12819      -5.91797
                        -----------------------------------------
Total Dipole Moment    :      2.79044      38.77069      19.92087
                        -----------------------------------------
Magnitude (a.u.)       :     43.67830
Magnitude (Debye)      :    111.02142



--------------------
Rotational spectrum 
--------------------
 
Rotational constants in cm-1:     0.660819     0.071662     0.064651 
Rotational constants in MHz : 19810.850912  2148.373923  1938.190984 

 Dipole components along the rotational axes: 
x,y,z [a.u.] :   -43.572315     3.040930    -0.007911 
x,y,z [Debye]:  -110.752022     7.729429    -0.020109 

 

Timings for individual modules:

Sum of individual times         ...     1599.551 sec (=  26.659 min)
GTO integral calculation        ...       19.423 sec (=   0.324 min)   1.2 %
SCF iterations                  ...     1037.082 sec (=  17.285 min)  64.8 %
SCF Gradient evaluation         ...      540.232 sec (=   9.004 min)  33.8 %
Geometry relaxation             ...        1.633 sec (=   0.027 min)   0.1 %
MM module                       ...        1.182 sec (=   0.020 min)   0.1 %
                             ****ORCA TERMINATED NORMALLY****
TOTAL RUN TIME: 0 days 0 hours 26 minutes 40 seconds 779 msec
