[Molden Format]
[Title]
 Molden file created by orca_2mkl for BaseName=Ag_1

[Atoms] AU
Ag   5  18         -4.8852909228         3.8401433902         2.2190507840
[GTO]
  1 0
s   2 1.0 
       19.0000000000        -5.5744918424
       15.4281999330        10.2449327281
s   1 1.0 
        6.0553507268         2.7511518957
s   1 1.0 
        1.4162368935         0.9252562343
s   1 1.0 
        0.6175863586         0.4965161317
s   1 1.0 
        0.1047419743         0.1312201890
s   1 1.0 
        0.0376851063         0.0609589392
p   4 1.0 
       13.1881801800         2.7578009658
        7.7952789138        -5.2823213825
        2.0351571912         1.9589709180
        0.9809391484         0.7961439746
p   1 1.0 
        0.4445117996         0.5173616168
p   1 1.0 
        0.1300000000         0.1112677429
p   1 1.0 
        0.0412000000         0.0264582800
d   4 1.0 
       25.7843973510         4.8243961623
       11.3966367550        -4.2106135660
        2.7345581361         6.4312805686
        1.1873583605         2.6277204894
d   1 1.0 
        0.4731691057         0.7695710997
d   1 1.0 
        0.1674601799         0.1249727430
f   1 1.0 
        1.3971100000        12.0995420129

[5D]
[7F]
[9G]
[MO]
 Sym=     1a
 Ene= -4.06409159732653E+00
 Spin= Alpha
 Occup= 2.000000
  1      -0.195504634415
  2       0.706545833260
  3      -0.920583039743
  4      -0.397245021932
  5      -0.007783746455
  6       0.002356125529
  7      -0.000000000004
  8      -0.000000000003
  9      -0.000000000000
 10       0.000000000009
 11       0.000000000007
 12       0.000000000000
 13      -0.000000000018
 14      -0.000000000015
 15      -0.000000000001
 16       0.000000000011
 17       0.000000000013
 18       0.000000000002
 19      -0.000000000000
 20      -0.000000000000
 21       0.000000000000
 22       0.000000000002
 23      -0.000000000000
 24       0.000000000008
 25       0.000000000001
 26      -0.000000000001
 27       0.000000000000
 28       0.000000000001
 29      -0.000000000016
 30      -0.000000000000
 31       0.000000000000
 32      -0.000000000000
 33      -0.000000000004
 34      -0.000000000000
 35      -0.000000000000
 36       0.000000000000
 37       0.000000000000
 38      -0.000000000000
 39      -0.000000000000
 40      -0.000000000000
 Sym=     1a
 Ene= -2.65209633421450E+00
 Spin= Alpha
 Occup= 2.000000
  1      -0.000000000001
  2       0.000000000003
  3      -0.000000000017
  4       0.000000000034
  5      -0.000000000054
  6       0.000000000035
  7       0.000740134185
  8      -0.876666256576
  9      -0.013289591599
 10       0.000133548526
 11      -0.158184134993
 12      -0.002397950800
 13       0.000004555741
 14      -0.005396135253
 15      -0.000081801294
 16      -0.000000719814
 17       0.000852596515
 18       0.000012924713
 19       0.000000000000
 20      -0.000000000000
 21      -0.000000000000
 22       0.000000000000
 23      -0.000000000000
 24      -0.000000000000
 25      -0.000000000000
 26       0.000000000000
 27      -0.000000000000
 28       0.000000000001
 29       0.000000000001
 30       0.000000000000
 31      -0.000000000000
 32       0.000000000000
 33      -0.000000000002
 34       0.000000000000
 35       0.000000000000
 36       0.000000000006
 37       0.000000000000
 38       0.000000000000
 39      -0.000000000000
 40      -0.000000000011
 Sym=     1a
 Ene= -2.65209633420801E+00
 Spin= Alpha
 Occup= 2.000000
  1       0.000000000002
  2      -0.000000000005
  3       0.000000000031
  4      -0.000000000061
  5       0.000000000095
  6      -0.000000000061
  7       0.842739238306
  8       0.004377779875
  9      -0.241851809476
 10       0.152062402770
 11       0.000789918988
 12      -0.043639319963
 13       0.005187304671
 14       0.000026946506
 15      -0.001488668098
 16      -0.000819601037
 17      -0.000004257583
 18       0.000235211538
 19      -0.000000000000
 20      -0.000000000000
 21      -0.000000000000
 22       0.000000000000
 23       0.000000000000
 24       0.000000000001
 25      -0.000000000000
 26       0.000000000000
 27      -0.000000000000
 28      -0.000000000000
 29      -0.000000000002
 30       0.000000000000
 31      -0.000000000000
 32       0.000000000001
 33       0.000000000001
 34       0.000000000003
 35       0.000000000001
 36      -0.000000000000
 37       0.000000000003
 38      -0.000000000000
 39       0.000000000016
 40      -0.000000000000
 Sym=     1a
 Ene= -2.65209633420650E+00
 Spin= Alpha
 Occup= 2.000000
  1       0.000000000001
  2      -0.000000000002
  3       0.000000000009
  4      -0.000000000018
  5       0.000000000028
  6      -0.000000000018
  7       0.241890295186
  8      -0.012569649431
  9       0.842645818528
 10       0.043646264255
 11      -0.002268045688
 12       0.152045546280
 13       0.001488904991
 14      -0.000077369840
 15       0.005186729635
 16      -0.000235248969
 17       0.000012224537
 18      -0.000819510175
 19      -0.000000000000
 20       0.000000000000
 21       0.000000000000
 22       0.000000000000
 23       0.000000000000
 24       0.000000000000
 25      -0.000000000000
 26      -0.000000000000
 27      -0.000000000000
 28       0.000000000000
 29      -0.000000000000
 30      -0.000000000000
 31       0.000000000000
 32       0.000000000000
 33       0.000000000000
 34      -0.000000000010
 35       0.000000000000
 36       0.000000000000
 37      -0.000000000011
 38       0.000000000000
 39       0.000000000005
 40      -0.000000000000
 Sym=     1a
 Ene= -6.39344257521115E-01
 Spin= Alpha
 Occup= 2.000000
  1       0.000000000000
  2      -0.000000000002
  3       0.000000000003
  4       0.000000000003
  5      -0.000000000013
  6       0.000000000006
  7       0.000000000000
  8      -0.000000000001
  9       0.000000000000
 10      -0.000000000001
 11       0.000000000002
 12      -0.000000000001
 13       0.000000000002
 14      -0.000000000007
 15      -0.000000000000
 16      -0.000000000005
 17       0.000000000012
 18       0.000000000001
 19       0.000099000562
 20       0.003698116295
 21       0.649398121582
 22      -0.000085481737
 23      -0.007405890436
 24       0.000058489258
 25       0.002184836848
 26       0.383662608856
 27      -0.000050502373
 28      -0.004375379527
 29       0.000023421546
 30       0.000874900084
 31       0.153634560290
 32      -0.000020223263
 33      -0.001752085019
 34       0.000000000000
 35       0.000000000000
 36       0.000000000000
 37       0.000000000000
 38      -0.000000000000
 39      -0.000000000000
 40      -0.000000000000
 Sym=     1a
 Ene= -6.39344257515429E-01
 Spin= Alpha
 Occup= 2.000000
  1       0.000000000005
  2      -0.000000000017
  3       0.000000000054
  4      -0.000000000055
  5       0.000000000037
  6      -0.000000000029
  7       0.000000000002
  8       0.000000000002
  9      -0.000000000000
 10       0.000000000003
 11       0.000000000006
 12       0.000000000001
 13      -0.000000000006
 14      -0.000000000012
 15      -0.000000000002
 16      -0.000000000011
 17      -0.000000000019
 18       0.000000000004
 19       0.004275984113
 20      -0.001875341412
 21      -0.007395688657
 22       0.000754473073
 23      -0.649391557004
 24       0.002526239556
 25      -0.001107946504
 26      -0.004369352344
 27       0.000445740597
 28      -0.383658730566
 29       0.001011612017
 30      -0.000443668134
 31      -0.001749671484
 32       0.000178493188
 33      -0.153633007183
 34      -0.000000000000
 35       0.000000000000
 36       0.000000000000
 37       0.000000000000
 38      -0.000000000000
 39      -0.000000000000
 40      -0.000000000000
 Sym=     1a
 Ene= -6.39344257500283E-01
 Spin= Alpha
 Occup= 2.000000
  1       0.000000000001
  2      -0.000000000004
  3       0.000000000009
  4      -0.000000000002
  5      -0.000000000004
  6      -0.000000000013
  7      -0.000000000000
  8      -0.000000000000
  9      -0.000000000000
 10       0.000000000000
 11       0.000000000001
 12       0.000000000000
 13       0.000000000000
 14      -0.000000000003
 15       0.000000000003
 16      -0.000000000001
 17       0.000000000005
 18      -0.000000000005
 19       0.000390992994
 20      -0.649437517095
 21       0.003719234154
 22       0.000127394900
 23       0.001835839649
 24       0.000230997576
 25      -0.383685883612
 26       0.002197313222
 27       0.000075264554
 28       0.001084608972
 29       0.000092501095
 30      -0.153643880426
 31       0.000879896145
 32       0.000030139076
 33       0.000434322810
 34      -0.000000000001
 35      -0.000000000000
 36      -0.000000000000
 37       0.000000000000
 38       0.000000000000
 39      -0.000000000000
 40      -0.000000000000
 Sym=     1a
 Ene= -6.39344257153255E-01
 Spin= Alpha
 Occup= 2.000000
  1      -0.000000000022
  2       0.000000000088
  3      -0.000000000115
  4      -0.000000000235
  5       0.000000000920
  6      -0.000000000589
  7       0.000000000001
  8       0.000000000000
  9       0.000000000001
 10      -0.000000000000
 11       0.000000000002
 12      -0.000000000002
 13      -0.000000000002
 14      -0.000000000004
 15       0.000000000006
 16      -0.000000000000
 17      -0.000000000006
 18      -0.000000000011
 19       0.265682808899
 20       0.000283454416
 21       0.000063674925
 22       0.592615461312
 23       0.002436381209
 24       0.156964666713
 25       0.000167464083
 26       0.000037618969
 27       0.350115571101
 28       0.001439407262
 29       0.062855219632
 30       0.000067059625
 31       0.000015064209
 32       0.140200922822
 33       0.000576398884
 34      -0.000000000000
 35       0.000000000000
 36      -0.000000000000
 37      -0.000000000000
 38       0.000000000000
 39       0.000000000000
 40       0.000000000000
 Sym=     1a
 Ene= -6.39344257143239E-01
 Spin= Alpha
 Occup= 2.000000
  1      -0.000000000018
  2       0.000000000063
  3      -0.000000000205
  4       0.000000000232
  5      -0.000000000214
  6       0.000000000172
  7       0.000000000001
  8       0.000000000001
  9       0.000000000000
 10       0.000000000005
 11       0.000000000001
 12      -0.000000000002
 13      -0.000000000010
 14      -0.000000000003
 15       0.000000000006
 16      -0.000000000011
 17      -0.000000000006
 18      -0.000000000010
 19       0.592604976880
 20       0.000314322990
 21      -0.000086125600
 22      -0.265693023116
 23       0.003593454071
 24       0.350109376934
 25       0.000185701151
 26      -0.000050882766
 27      -0.156970701232
 28       0.002123002697
 29       0.140198442407
 30       0.000074362509
 31      -0.000020375588
 32      -0.062857636132
 33       0.000850139098
 34      -0.000000000000
 35       0.000000000001
 36      -0.000000000000
 37       0.000000000000
 38       0.000000000000
 39      -0.000000000000
 40      -0.000000000000
 Sym=     1a
 Ene= -3.69499313753514E-01
 Spin= Alpha
 Occup= 0.000000
  1      -0.063939041521
  2       0.246026871294
  3      -0.454425789700
  4      -0.205384561955
  5       0.976484124214
  6       0.174486337074
  7       0.000000000118
  8       0.000000000099
  9       0.000000000022
 10      -0.000000000151
 11      -0.000000000136
 12      -0.000000000017
 13      -0.000000000065
 14      -0.000000000004
 15       0.000000000134
 16       0.000000000046
 17       0.000000000009
 18      -0.000000000504
 19      -0.000000000082
 20      -0.000000000016
 21       0.000000000006
 22      -0.000000000221
 23       0.000000000007
 24       0.000000000118
 25      -0.000000000032
 26       0.000000000011
 27       0.000000000087
 28       0.000000000005
 29      -0.000000000281
 30       0.000000000051
 31      -0.000000000017
 32      -0.000000000234
 33      -0.000000000029
 34      -0.000000000000
 35      -0.000000000000
 36      -0.000000000000
 37       0.000000000000
 38      -0.000000000000
 39       0.000000000000
 40      -0.000000000000
 Sym=     1a
 Ene= -1.96897986466562E-01
 Spin= Alpha
 Occup= 0.000000
  1      -0.000000000021
  2       0.000000000075
  3      -0.000000000194
  4       0.000000000125
  5      -0.000000000284
  6       0.000000000666
  7      -0.002999668710
  8       0.000771763886
  9      -0.231163047532
 10      -0.000422508686
 11       0.000108704319
 12      -0.032559726232
 13       0.007476703813
 14      -0.001923629088
 15       0.576176168646
 16       0.007102723245
 17      -0.001827410237
 18       0.547356168234
 19       0.000000000013
 20      -0.000000000003
 21       0.000000000001
 22       0.000000000003
 23       0.000000000002
 24       0.000000000044
 25      -0.000000000012
 26       0.000000000000
 27      -0.000000000011
 28      -0.000000000008
 29      -0.000000000084
 30       0.000000000021
 31      -0.000000000003
 32       0.000000000019
 33       0.000000000013
 34       0.000000000006
 35       0.000000000000
 36      -0.000000000000
 37       0.000000000006
 38      -0.000000000000
 39      -0.000000000000
 40       0.000000000000
 Sym=     1a
 Ene= -1.96897986427359E-01
 Spin= Alpha
 Occup= 0.000000
  1       0.000000000000
  2      -0.000000000001
  3      -0.000000000006
  4       0.000000000025
  5      -0.000000000019
  6      -0.000000000039
  7       0.009530653971
  8       0.230986353985
  9       0.000647500208
 10       0.001342409605
 11       0.032534839688
 12       0.000091201555
 13      -0.023755248884
 14      -0.575735762416
 15      -0.001613900634
 16      -0.022567024688
 17      -0.546937781523
 18      -0.001533174251
 19       0.000000000000
 20      -0.000000000002
 21       0.000000000006
 22       0.000000000000
 23       0.000000000000
 24      -0.000000000005
 25       0.000000000007
 26      -0.000000000026
 27      -0.000000000002
 28       0.000000000015
 29      -0.000000000013
 30      -0.000000000013
 31       0.000000000045
 32      -0.000000000005
 33       0.000000000025
 34      -0.000000000000
 35       0.000000000000
 36      -0.000000000005
 37      -0.000000000000
 38      -0.000000000000
 39       0.000000000000
 40       0.000000000006
 Sym=     1a
 Ene= -1.96897986317337E-01
 Spin= Alpha
 Occup= 0.000000
  1      -0.000000000011
  2       0.000000000042
  3      -0.000000000101
  4       0.000000000034
  5       0.000000000120
  6      -0.000000000067
  7      -0.230967783661
  8       0.009521397099
  9       0.003028923127
 10      -0.032532223910
 11       0.001341105744
 12       0.000426629205
 13       0.575689475844
 14      -0.023732176067
 15      -0.007549620668
 16       0.546893808660
 17      -0.022545105759
 18      -0.007171992990
 19      -0.000000000002
 20      -0.000000000001
 21       0.000000000002
 22       0.000000000001
 23       0.000000000000
 24       0.000000000002
 25       0.000000000005
 26      -0.000000000009
 27      -0.000000000003
 28      -0.000000000006
 29       0.000000000031
 30      -0.000000000009
 31       0.000000000015
 32      -0.000000000008
 33      -0.000000000018
 34      -0.000000000000
 35       0.000000000001
 36      -0.000000000000
 37      -0.000000000000
 38      -0.000000000000
 39      -0.000000000011
 40       0.000000000000
 Sym=     1a
 Ene= -6.46439231193505E-02
 Spin= Alpha
 Occup= 0.000000
  1       0.039753059507
  2      -0.155268164051
  3       0.266596535784
  4       0.257829371469
  5      -1.871669724748
  6       1.887195445348
  7      -0.000000000542
  8      -0.000000000285
  9       0.000000000672
 10       0.000000000121
 11       0.000000000263
 12       0.000000000552
 13       0.000000001964
 14       0.000000000424
 15      -0.000000004386
 16      -0.000000001886
 17      -0.000000000526
 18       0.000000003678
 19      -0.000000000150
 20      -0.000000000033
 21      -0.000000000006
 22       0.000000000437
 23      -0.000000000003
 24      -0.000000001390
 25      -0.000000000074
 26      -0.000000000015
 27      -0.000000000675
 28      -0.000000000019
 29       0.000000002729
 30       0.000000000172
 31       0.000000000027
 32       0.000000000997
 33       0.000000000020
 34       0.000000000000
 35      -0.000000000000
 36      -0.000000000000
 37      -0.000000000000
 38       0.000000000000
 39       0.000000000000
 40      -0.000000000000
 Sym=     1a
 Ene= 2.11952905632655E-02
 Spin= Alpha
 Occup= 0.000000
  1      -0.000000000172
  2       0.000000000659
  3      -0.000000001345
  4      -0.000000000368
  5       0.000000005590
  6      -0.000000005461
  7       0.000109432976
  8       0.000022313193
  9       0.236046020620
 10       0.000059419639
 11       0.000012115561
 12       0.128167664284
 13      -0.000642388125
 14      -0.000130981819
 15      -1.385625836680
 16       0.000595887694
 17       0.000121500463
 18       1.285324788823
 19       0.000000000069
 20      -0.000000000024
 21      -0.000000000000
 22      -0.000000000004
 23      -0.000000000003
 24       0.000000000150
 25      -0.000000000050
 26       0.000000000001
 27      -0.000000000032
 28      -0.000000000024
 29      -0.000000000358
 30       0.000000000119
 31      -0.000000000002
 32       0.000000000067
 33       0.000000000051
 34      -0.000000000006
 35       0.000000000000
 36       0.000000000000
 37      -0.000000000007
 38       0.000000000000
 39       0.000000000000
 40       0.000000000000
 Sym=     1a
 Ene= 2.11952938013702E-02
 Spin= Alpha
 Occup= 0.000000
  1       0.000000000083
  2      -0.000000000307
  3       0.000000000823
  4      -0.000000000484
  5      -0.000000000815
  6       0.000000000911
  7       0.015121260179
  8       0.235561208548
  9      -0.000029277712
 10       0.008210502953
 11       0.127904420787
 12      -0.000015897137
 13      -0.088764083380
 14      -1.382779913548
 15       0.000171864595
 16       0.082338733943
 17       1.282684877138
 18      -0.000159423863
 19      -0.000000000003
 20      -0.000000000003
 21       0.000000000014
 22       0.000000000000
 23       0.000000000001
 24      -0.000000000002
 25      -0.000000000023
 26       0.000000000082
 27       0.000000000001
 28      -0.000000000005
 29       0.000000000011
 30       0.000000000048
 31      -0.000000000175
 32      -0.000000000001
 33      -0.000000000003
 34       0.000000000000
 35      -0.000000000000
 36      -0.000000000004
 37      -0.000000000000
 38       0.000000000000
 39       0.000000000001
 40       0.000000000008
 Sym=     1a
 Ene= 2.11952941944962E-02
 Spin= Alpha
 Occup= 0.000000
  1       0.000000000154
  2      -0.000000000567
  3       0.000000001416
  4      -0.000000000555
  5      -0.000000002493
  6       0.000000002642
  7       0.235561185931
  8      -0.015121272013
  9      -0.000107778806
 10       0.127904406166
 11      -0.008210509452
 12      -0.000058521457
 13      -1.382779773528
 14       0.088764153114
 15       0.000632677880
 16       1.282684748569
 17      -0.082338798686
 18      -0.000586880341
 19      -0.000000000014
 20       0.000000000006
 21      -0.000000000004
 22      -0.000000000002
 23       0.000000000003
 24      -0.000000000023
 25       0.000000000021
 26      -0.000000000030
 27      -0.000000000004
 28       0.000000000003
 29       0.000000000065
 30      -0.000000000048
 31       0.000000000062
 32       0.000000000007
 33      -0.000000000016
 34      -0.000000000000
 35       0.000000000000
 36       0.000000000000
 37       0.000000000000
 38      -0.000000000000
 39       0.000000000010
 40      -0.000000000001
 Sym=     1a
 Ene= 1.82299495607503E-01
 Spin= Alpha
 Occup= 0.000000
  1       0.000000000004
  2      -0.000000000014
  3       0.000000000049
  4      -0.000000000061
  5       0.000000000134
  6      -0.000000000179
  7       0.000000000012
  8      -0.000000000009
  9      -0.000000000029
 10      -0.000000000004
 11      -0.000000000002
 12      -0.000000000000
 13      -0.000000000043
 14       0.000000000046
 15       0.000000000130
 16       0.000000000050
 17      -0.000000000053
 18      -0.000000000145
 19       0.007689126679
 20      -0.288547050330
 21      -0.002923238377
 22       0.000935253988
 23       0.000239369914
 24       0.010270471770
 25      -0.385416245285
 26      -0.003904609521
 27       0.001249231557
 28       0.000319729670
 29      -0.030637528925
 30       1.149723365635
 31       0.011647720753
 32      -0.003726544292
 33      -0.000953775762
 34      -0.000000000000
 35       0.000000000000
 36      -0.000000000000
 37       0.000000000000
 38       0.000000000000
 39       0.000000000000
 40       0.000000000000
 Sym=     1a
 Ene= 1.82299495654071E-01
 Spin= Alpha
 Occup= 0.000000
  1       0.000000000041
  2      -0.000000000151
  3       0.000000000433
  4      -0.000000000333
  5      -0.000000000123
  6       0.000000000171
  7      -0.000000000004
  8       0.000000000001
  9       0.000000000006
 10       0.000000000008
 11       0.000000000011
 12       0.000000000001
 13       0.000000000002
 14      -0.000000000020
 15      -0.000000000031
 16      -0.000000000023
 17      -0.000000000008
 18       0.000000000036
 19       0.014532658571
 20       0.000718299520
 21      -0.007137155690
 22       0.006075926489
 23       0.288146543172
 24       0.019411470979
 25       0.000959442502
 26      -0.009533196553
 27       0.008115698187
 28       0.384881281954
 29      -0.057905762989
 30      -0.002862083464
 31       0.028438185893
 32      -0.024209690035
 33      -1.148127533522
 34       0.000000000000
 35       0.000000000000
 36       0.000000000001
 37      -0.000000000000
 38      -0.000000000000
 39      -0.000000000001
 40       0.000000000001
 Sym=     1a
 Ene= 1.82299495669895E-01
 Spin= Alpha
 Occup= 0.000000
  1       0.000000000005
  2      -0.000000000017
  3       0.000000000044
  4      -0.000000000020
  5      -0.000000000050
  6       0.000000000039
  7       0.000000000009
  8      -0.000000000032
  9      -0.000000000001
 10       0.000000000002
 11      -0.000000000007
 12       0.000000000001
 13      -0.000000000048
 14       0.000000000171
 15       0.000000000000
 16       0.000000000055
 17      -0.000000000199
 18      -0.000000000004
 19       0.000590821141
 20      -0.002901816468
 21       0.288562747284
 22      -0.000022866449
 23       0.007125382584
 24       0.000789167886
 25      -0.003875995976
 26       0.385437211572
 27      -0.000030543028
 28       0.009517471051
 29      -0.002354142487
 30       0.011562364577
 31      -1.149785909897
 32       0.000091111970
 33      -0.028391275636
 34       0.000000000000
 35       0.000000000000
 36      -0.000000000000
 37       0.000000000000
 38      -0.000000000000
 39      -0.000000000000
 40       0.000000000000
 Sym=     1a
 Ene= 1.82299495712492E-01
 Spin= Alpha
 Occup= 0.000000
  1       0.000000000109
  2      -0.000000000407
  3       0.000000001015
  4      -0.000000000378
  5      -0.000000001761
  6       0.000000001760
  7       0.000000000005
  8      -0.000000000000
  9      -0.000000000005
 10       0.000000000000
 11      -0.000000000003
 12       0.000000000003
 13      -0.000000000022
 14       0.000000000006
 15       0.000000000010
 16       0.000000000021
 17       0.000000000004
 18      -0.000000000012
 19       0.058734700595
 20       0.002471829493
 21       0.000147270864
 22       0.282475692378
 23      -0.008921145755
 24       0.078452743669
 25       0.003301656492
 26       0.000196711709
 27       0.377306649395
 28      -0.011916096510
 29      -0.234029970332
 30      -0.009849070093
 31      -0.000586804659
 32      -1.125531878594
 33       0.035546541569
 34       0.000000000000
 35       0.000000000000
 36      -0.000000000000
 37      -0.000000000000
 38       0.000000000000
 39       0.000000000000
 40      -0.000000000000
 Sym=     1a
 Ene= 1.82299495768629E-01
 Spin= Alpha
 Occup= 0.000000
  1      -0.000000000259
  2       0.000000000957
  3      -0.000000002540
  4       0.000000001392
  5       0.000000002982
  6      -0.000000003281
  7      -0.000000000013
  8      -0.000000000002
  9       0.000000000071
 10       0.000000000008
 11       0.000000000005
 12       0.000000000012
 13       0.000000000049
 14       0.000000000001
 15      -0.000000000364
 16      -0.000000000081
 17      -0.000000000015
 18       0.000000000421
 19      -0.282148126648
 20      -0.007318029489
 21       0.000187631530
 22       0.059141283567
 23       0.013005951584
 24      -0.376869115261
 25      -0.009774792167
 26       0.000250622003
 27       0.078995822075
 28       0.017372227579
 29       1.124226684109
 30       0.029158882347
 31      -0.000747622803
 32      -0.235650010870
 33      -0.051822558603
 34      -0.000000000000
 35       0.000000000000
 36       0.000000000000
 37       0.000000000000
 38      -0.000000000000
 39      -0.000000000000
 40       0.000000000000
 Sym=     1a
 Ene= 1.34877081420797E+00
 Spin= Alpha
 Occup= 0.000000
  1       0.000000000084
  2      -0.000000000319
  3       0.000000000999
  4      -0.000000000884
  5       0.000000000060
  6       0.000000000086
  7       0.015299700573
  8       1.314660207440
  9       0.000285033857
 10      -0.024812770067
 11      -2.132091493740
 12      -0.000462262612
 13       0.015500840824
 14       1.331943624131
 15       0.000288781105
 16      -0.005692608934
 17      -0.489149863580
 18      -0.000106053466
 19      -0.000000000026
 20      -0.000000000007
 21       0.000000000025
 22      -0.000000000006
 23       0.000000000049
 24       0.000000000036
 25       0.000000000009
 26      -0.000000000032
 27       0.000000000009
 28      -0.000000000070
 29      -0.000000000014
 30      -0.000000000003
 31       0.000000000010
 32      -0.000000000003
 33       0.000000000026
 34      -0.000000000000
 35      -0.000000000001
 36      -0.000000000092
 37      -0.000000000001
 38      -0.000000000001
 39       0.000000000003
 40       0.000000000140
 Sym=     1a
 Ene= 1.34877081447847E+00
 Spin= Alpha
 Occup= 0.000000
  1       0.000000000073
  2      -0.000000000274
  3       0.000000000884
  4      -0.000000000849
  5       0.000000000238
  6      -0.000000000030
  7       0.001557647695
  8      -0.000303180488
  9       1.314748304848
 10      -0.002526164084
 11       0.000491692481
 12      -2.132234368300
 13       0.001578125589
 14      -0.000307166305
 15       1.332032878962
 16      -0.000579559002
 17       0.000112805342
 18      -0.489182641251
 19       0.000000000029
 20      -0.000000000010
 21       0.000000000003
 22      -0.000000000008
 23      -0.000000000007
 24      -0.000000000033
 25       0.000000000010
 26      -0.000000000004
 27       0.000000000010
 28       0.000000000009
 29       0.000000000003
 30       0.000000000001
 31       0.000000000001
 32      -0.000000000004
 33      -0.000000000003
 34      -0.000000000029
 35      -0.000000000001
 36       0.000000000001
 37      -0.000000000094
 38       0.000000000002
 39       0.000000000000
 40      -0.000000000000
 Sym=     1a
 Ene= 1.34877081579573E+00
 Spin= Alpha
 Occup= 0.000000
  1       0.000000000031
  2      -0.000000000111
  3       0.000000000412
  4      -0.000000000534
  5       0.000000000556
  6      -0.000000000359
  7      -1.314659315336
  8       0.015299351728
  9       0.001561070289
 10       2.132090047427
 11      -0.024812204331
 12      -0.002531714786
 13      -1.331942721739
 14       0.015500487435
 15       0.001581593182
 16       0.489149532775
 17      -0.005692479161
 18      -0.000580832457
 19       0.000000000037
 20      -0.000000000010
 21       0.000000000008
 22      -0.000000000006
 23      -0.000000000041
 24      -0.000000000051
 25       0.000000000011
 26      -0.000000000010
 27       0.000000000010
 28       0.000000000057
 29       0.000000000016
 30      -0.000000000001
 31       0.000000000003
 32      -0.000000000004
 33      -0.000000000021
 34      -0.000000000000
 35       0.000000000033
 36      -0.000000000000
 37       0.000000000000
 38      -0.000000000001
 39      -0.000000000089
 40       0.000000000004
 Sym=     1a
 Ene= 1.59523372198148E+00
 Spin= Alpha
 Occup= 0.000000
  1       0.270950422688
  2      -1.030812957164
  3       3.423805816792
  4      -3.440307724918
  5       1.501547734259
  6      -0.688900148890
  7       0.000000000093
  8      -0.000000000404
  9      -0.000000000309
 10      -0.000000000330
 11       0.000000000561
 12       0.000000000554
 13       0.000000000593
 14      -0.000000000136
 15      -0.000000000496
 16      -0.000000000430
 17      -0.000000000085
 18       0.000000000308
 19      -0.000000003512
 20       0.000000000031
 21      -0.000000000054
 22      -0.000000002529
 23      -0.000000000026
 24       0.000000004625
 25      -0.000000000044
 26       0.000000000073
 27       0.000000003500
 28      -0.000000000004
 29      -0.000000001512
 30       0.000000000022
 31      -0.000000000028
 32      -0.000000001533
 33       0.000000000083
 34       0.000000000002
 35       0.000000000002
 36      -0.000000000001
 37      -0.000000000000
 38       0.000000000003
 39       0.000000000001
 40       0.000000000001
 Sym=     1a
 Ene= 1.77710361839114E+00
 Spin= Alpha
 Occup= 0.000000
  1       0.000000000009
  2      -0.000000000034
  3       0.000000000114
  4      -0.000000000114
  5       0.000000000038
  6      -0.000000000004
  7       0.000000000010
  8      -0.000000000007
  9      -0.000000000009
 10      -0.000000000017
 11       0.000000000012
 12       0.000000000017
 13       0.000000000014
 14      -0.000000000013
 15      -0.000000000017
 16      -0.000000000009
 17       0.000000000011
 18       0.000000000013
 19       0.002365376658
 20      -1.095204047640
 21      -0.039552237407
 22       0.000237535272
 23       0.000151407637
 24      -0.003393989550
 25       1.571466887248
 26       0.056752010310
 27      -0.000340830383
 28      -0.000217249094
 29       0.001544446767
 30      -0.715101481593
 31      -0.025825200001
 32       0.000155096053
 33       0.000098859957
 34      -0.000000000003