[Molden Format]
[Title]
 Molden file created by orca_2mkl for BaseName=HCOO-Ag+_wat

[Atoms] AU
C    1   6         -5.7087389785        -0.9141568240        -0.3217038200 
O    2   8         -3.5073640420        -1.7400704012        -0.3117320322 
O    3   8         -6.5974792561         1.0909552727         0.5244501823 
H    4   1         -7.1529382755        -1.9671097099        -1.1135760466 
Ag   5  18         -4.8852909228         3.8401433902         2.2190507840 
[GTO]
  1 0
s   6 1.0 
    13575.3496820000         0.5435905310
     2035.2333680000         1.0145543947
      463.2256235900         1.7315731970
      131.2001959800         2.6910376290
       42.8530158910         3.6044547126
       15.5841857660         3.7025556986
s   2 1.0 
        6.2067138508         1.8383540830
        2.5764896527         0.5447575605
s   1 1.0 
        0.5769633942         0.4718145038
s   1 1.0 
        0.2297283136         0.2364944676
s   1 1.0 
        0.0951644400         0.1221141848
p   4 1.0 
       34.6972322440         1.3596651507
        7.9582622826         1.4512589486
        2.3780826883         1.2709231419
        0.8143320818         0.8025721189
p   1 1.0 
        0.2888754725         0.3018758868
p   1 1.0 
        0.1005682367         0.0807265016
d   1 1.0 
        1.0970000000         3.3522135855
d   1 1.0 
        0.3180000000         0.3838994974
f   1 1.0 
        0.7610000000         3.0840084332

  2 0
s   6 1.0 
    27032.3826310000         0.8598581479
     4052.3871392000         1.6055305368
      922.3272271000         2.7458778516
      261.2407098900         4.2987674426
       85.3546413510         5.8797663284
       31.0350352450         6.3163983216
s   2 1.0 
       12.2608607280         2.9812147522
        4.9987076005         0.9419559635
s   1 1.0 
        1.1703108158         0.8019291610
s   1 1.0 
        0.4647474099         0.4011648062
s   1 1.0 
        0.1850453636         0.2010799406
p   4 1.0 
       63.2749548010         3.0572017144
       14.6270493790         3.3844839414
        4.4501223456         2.9474262132
        1.5275799647         1.7118271494
p   1 1.0 
        0.5293511794         0.6436057926
p   1 1.0 
        0.1747842127         0.1610897254
d   1 1.0 
        2.3140000000        12.3767310624
d   1 1.0 
        0.6450000000         1.3234257612
f   1 1.0 
        1.4280000000        12.7097950062

  3 0
s   6 1.0 
    27032.3826310000         0.8598581479
     4052.3871392000         1.6055305368
      922.3272271000         2.7458778516
      261.2407098900         4.2987674426
       85.3546413510         5.8797663284
       31.0350352450         6.3163983216
s   2 1.0 
       12.2608607280         2.9812147522
        4.9987076005         0.9419559635
s   1 1.0 
        1.1703108158         0.8019291610
s   1 1.0 
        0.4647474099         0.4011648062
s   1 1.0 
        0.1850453636         0.2010799406
p   4 1.0 
       63.2749548010         3.0572017144
       14.6270493790         3.3844839414
        4.4501223456         2.9474262132
        1.5275799647         1.7118271494
p   1 1.0 
        0.5293511794         0.6436057926
p   1 1.0 
        0.1747842127         0.1610897254
d   1 1.0 
        2.3140000000        12.3767310624
d   1 1.0 
        0.6450000000         1.3234257612
f   1 1.0 
        1.4280000000        12.7097950062

  4 0
s   3 1.0 
       34.0613410000         0.2556299169
        5.1235746000         0.4613599649
        1.1646626000         0.6811214941
s   1 1.0 
        0.3272304100         0.3083545312
s   1 1.0 
        0.1030724100         0.1296483265
p   1 1.0 
        0.8000000000         1.0784563492

  5 0
s   2 1.0 
       19.0000000000        -5.5744918424
       15.4281999330        10.2449327281
s   1 1.0 
        6.0553507268         2.7511518957
s   1 1.0 
        1.4162368935         0.9252562343
s   1 1.0 
        0.6175863586         0.4965161317
s   1 1.0 
        0.1047419743         0.1312201890
s   1 1.0 
        0.0376851063         0.0609589392
p   4 1.0 
       13.1881801800         2.7578009658
        7.7952789138        -5.2823213825
        2.0351571912         1.9589709180
        0.9809391484         0.7961439746
p   1 1.0 
        0.4445117996         0.5173616168
p   1 1.0 
        0.1300000000         0.1112677429
p   1 1.0 
        0.0412000000         0.0264582800
d   4 1.0 
       25.7843973510         4.8243961623
       11.3966367550        -4.2106135660
        2.7345581361         6.4312805686
        1.1873583605         2.6277204894
d   1 1.0 
        0.4731691057         0.7695710997
d   1 1.0 
        0.1674601799         0.1249727430
f   1 1.0 
        1.3971100000        12.0995420129

[5D]
[7F]
[9G]
[MO]
 Sym=     1a
 Ene= -1.92109553481190E+01
 Spin= Alpha
 Occup= 2.000000
  1      -0.000030386856
  2       0.000193005858
  3      -0.000019639953
  4      -0.005702326784
  5       0.001991358381
  6       0.000128004428
  7      -0.000504819750
  8      -0.000232143224
  9       0.003130232734
 10      -0.005253694507
 11      -0.002063551490
 12       0.000650608788
 13       0.001840758507
 14       0.001050937513
 15       0.000149950284
 16       0.000070639193
 17      -0.000321747233
 18       0.000293172715
 19       0.000183560711
 20       0.000735167342
 21       0.001131526687
 22      -0.001254932049
 23       0.001612662852
 24       0.002249639785
 25       0.000110112483
 26      -0.000106018417
 27       0.000025838152
 28       0.000155841335
 29      -0.000069006701
 30      -0.000141986056
 31       0.000028875604
 32       0.000020504182
 33       0.000060142080
 34      -0.000102034519
 35      -0.000194607792
 36      -0.001105453930
 37       0.000036153961
 38       0.000002670334
 39       0.000009208665
 40       0.000160129727
 41      -0.000381603103
 42      -0.000166203029
 43      -0.000031802665
 44      -0.000744915502
 45      -0.000382113565
 46       0.000050252403
 47      -0.000035907984
 48      -0.000048037435
 49      -0.000029663614
 50      -0.000012713051
 51      -0.000122083871
 52       0.000211248190
 53       0.000140268301
 54       0.000140012142
 55       0.000233514906
 56       0.000007787329
 57       0.000034782607
 58      -0.000004998315
 59      -0.000052855763
 60      -0.000034239946
 61       0.000019001016
 62       0.000032040296
 63      -0.435381256860
 64      -0.639633843659
 65      -0.034388332093
 66       0.025968137665
 67      -0.009754262150
 68      -0.001156547393
 69       0.001164204818
 70       0.000369842755
 71       0.002291011061
 72      -0.003774686253
 73      -0.001473576370
 74      -0.001665300536
 75      -0.002599867774
 76      -0.001613541691
 77       0.000063981347
 78       0.000072400287
 79      -0.000181410710
 80       0.000223758599
 81       0.000144956722
 82      -0.000334179949
 83      -0.000369551560
 84       0.000763195758
 85      -0.000897845298
 86      -0.000738507689
 87       0.000080841560
 88      -0.000025563109
 89       0.000036825522
 90       0.000080454260
 91       0.000083290281
 92       0.000111561271
 93      -0.000040096016
 94      -0.000212538231
 95      -0.000602763041
 96       0.000887742285
 97      -0.000123794602
 98       0.000209704094
 99       0.000085016451
100       0.000051684014
101      -0.000137675029
102       0.000374671767
103      -0.000510707500
104       0.002882127504
105      -0.000303833091
106      -0.000123093110
107      -0.000149508811
108      -0.000097656541
109       0.000204850204
110       0.000205836009
111       0.000140914072
112      -0.001442640933
113      -0.001923906648
114      -0.001230479740
115      -0.000002073948
116       0.000242985277
117       0.000122368277
118      -0.000031365929
119       0.000074981821
120       0.000087856042
121      -0.000020749478
122       0.000115570937
123       0.000085129150
124      -0.000206838022
125      -0.000233501121
126       0.000047123846
127      -0.000317572295
128      -0.000224586639
129       0.000548275175
130       0.000676033543
131      -0.000204149391
132       0.000862566806
133      -0.000038841097
134       0.000001461711
135       0.000002747820
136      -0.000023981870
137       0.000056804405
138       0.000047708883
139      -0.000008467034
 Sym=     1a
 Ene= -1.91734174709135E+01
 Spin= Alpha
 Occup= 2.000000
  1       0.000031725985
  2      -0.000202377875
  3       0.000471916084
  4       0.003308135242
  5      -0.002184777390
  6       0.000586405203
  7      -0.000158538369
  8       0.000035280022
  9       0.005839102065
 10      -0.002890218050
 11      -0.000339595686
 12      -0.004084559332
 13      -0.000438953382
 14      -0.000995586037
 15      -0.000242392164
 16       0.000024199987
 17       0.000025563758
 18       0.000297101880
 19      -0.000236337749
 20      -0.001236469721
 21      -0.000126469751
 22      -0.000992075356
 23       0.002827325813
 24      -0.001958995169
 25       0.000029284631
 26      -0.000105261871
 27       0.000046707072
 28       0.000196914460
 29       0.000216844335
 30       0.000103804120
 31      -0.000131396691
 32       0.435389769139
 33       0.639690992899
 34       0.034086451898
 35      -0.025619177380
 36       0.009361164810
 37      -0.001843816921
 38       0.000769407122
 39       0.000028886831
 40       0.004879523601
 41      -0.001977121524
 42      -0.000048636988
 43      -0.000618663468
 44       0.000669590862
 45       0.000212925677
 46      -0.000123633258
 47      -0.000009658274
 48      -0.000047090969
 49       0.000214429707
 50      -0.000174069929
 51       0.000604039670
 52       0.000019807399
 53       0.000117601027
 54      -0.000919951602
 55       0.000771783476
 56      -0.000000443181
 57      -0.000103584804
 58       0.000038555885
 59       0.000005435234
 60      -0.000000695941
 61      -0.000069595979
 62       0.000121397700
 63       0.000027703390
 64       0.000011334395
 65       0.000020015256
 66       0.000949035420
 67       0.002181881422
 68       0.000014676766
 69      -0.000003215790
 70       0.000001133080
 71       0.000515289829
 72      -0.000710690085
 73      -0.000260081643
 74       0.001872574624
 75       0.000994824404
 76       0.000859625132
 77      -0.000043569785
 78       0.000022352488
 79       0.000073849785
 80      -0.000024295068
 81       0.000007291985
 82       0.000055527070
 83      -0.000179623663
 84      -0.000224192869
 85       0.000082976313
 86      -0.000288494087
 87      -0.000055143511
 88       0.000039345290
 89      -0.000010926165
 90      -0.000070041505
 91       0.000027900483
 92       0.000048750511
 93      -0.000003133803
 94       0.000318372959
 95       0.000767522403
 96      -0.002212423001
 97       0.000251505163
 98      -0.000154583683
 99      -0.000031689778
100      -0.000000053196
101       0.000000038851
102       0.000001131629
103       0.000036639876
104      -0.001135507075
105       0.000445041507
106      -0.000009805926
107      -0.000010017070
108      -0.000007781397
109       0.000029278417
110       0.000066880610
111       0.000041451536
112       0.000561749337
113       0.000648698816
114       0.000423636530
115      -0.000006020247
116      -0.000268006587
117      -0.000135267420
118       0.000011874024
119      -0.000006455103
120      -0.000013775826
121      -0.000000085337
122      -0.000002642023
123      -0.000029052972
124       0.000012963852
125       0.000021190885
126       0.000013791551
127      -0.000001586408
128       0.000082316127
129      -0.000209779498
130      -0.000259035146
131       0.000093883982
132      -0.000341137995
133       0.000001088230
134       0.000001735697
135       0.000001176048
136      -0.000003030997
137       0.000003227329
138       0.000007602518
139       0.000001922175
 Sym=     1a
 Ene= -1.03187280182468E+01
 Spin= Alpha
 Occup= 2.000000
  1      -0.467161743194
  2      -0.608215254589
  3      -0.034433435781
  4       0.002987679414
  5      -0.008243815434
  6      -0.000499544577
  7      -0.001062663726
  8      -0.000637172701
  9      -0.002224619237
 10      -0.001600731747
 11      -0.001284077133
 12       0.001995040394
 13       0.000860024515
 14       0.000807412133
 15       0.001819144881
 16      -0.000036321876
 17      -0.001432281177
 18      -0.000440659138
 19       0.001560065355
 20       0.002464151248
 21       0.000224158387
 22      -0.001834515278
 23      -0.000521115104
 24       0.002583780457
 25       0.000296613303
 26       0.000716750060
 27      -0.000128658262
 28       0.000831467494
 29       0.001164288748
 30       0.001604711669
 31      -0.001935833244
 32       0.000064733371
 33       0.000245558444
 34      -0.002633276376
 35       0.008444171755
 36       0.001741906696
 37       0.000592326331
 38      -0.000229910702
 39      -0.000000686346
 40      -0.006125981079
 41       0.002364372507
 42       0.000002502104
 43      -0.000379138091
 44      -0.000478396241
 45      -0.000309188116
 46       0.000023532301
 47      -0.000019238786
 48       0.000000242048
 49      -0.000046707028
 50      -0.000002776088
 51      -0.001519099216
 52       0.000025058983
 53      -0.000033993254
 54       0.002022293122
 55      -0.001734484391
 56      -0.000010534729
 57       0.000381304532
 58      -0.000151234249
 59       0.000074213939
 60       0.000078433182
 61       0.000278056087
 62      -0.000583540805
 63       0.000063795907
 64       0.000260295895
 65      -0.002780753657
 66       0.008748828332
 67       0.001139641362
 68      -0.000285072518
 69       0.000570538769
 70       0.000235060008
 71       0.002805529854
 72      -0.005530831413
 73      -0.002268945268
 74      -0.001114873904
 75      -0.000494130624
 76      -0.000455850628
 77       0.000001390400
 78       0.000026207085
 79      -0.000025262036
 80       0.000052347757
 81       0.000036798781
 82      -0.000932842231
 83      -0.000857788941
 84       0.001506406974
 85      -0.001495117686
 86      -0.001967664526
 87       0.000277234709
 88      -0.000040662835
 89       0.000154183357
 90       0.000214454199
 91       0.000407782759
 92       0.000566812472
 93      -0.000100882921
 94       0.001039409183
 95       0.001956508004
 96       0.003223298459
 97       0.001751238309
 98       0.001228018156
 99       0.000936680341
100      -0.000013657822
101       0.000038750740
102      -0.000110806353
103       0.000072413993
104       0.000431452995
105       0.000512209184
106       0.000033129140
107       0.000079013989
108       0.000046195329
109      -0.000108517160
110      -0.000164548702
111      -0.000103731031
112      -0.000002495847
113      -0.000423153276
114      -0.000210787748
115      -0.000122900419
116      -0.000396423134
117      -0.000223454600
118       0.000004189089
119      -0.000000374747
120      -0.000015822006
121       0.000015360106
122      -0.000000894121
123      -0.000029348145
124       0.000026298341
125       0.000067435303
126      -0.000031343088
127       0.000031519816
128       0.000017263326
129      -0.000002777148
130       0.000227234701
131      -0.000340124902
132       0.000087685679
133       0.000010817346
134      -0.000002767950
135      -0.000004228919
136       0.000026917644
137      -0.000012165965
138      -0.000021835010
139      -0.000020923802
 Sym=     1a
 Ene= -3.78742166884874E+00
 Spin= Alpha
 Occup= 2.000000
  1      -0.000001716159
  2      -0.000015935152
  3       0.000271348872
  4      -0.000777514549
  5       0.000740524569
  6      -0.000022625235
  7       0.000002290024
  8      -0.000002818796
  9       0.000686602017
 10      -0.000101346119
 11       0.000075525603
 12      -0.001512589264
 13      -0.001339914962
 14      -0.000951530717
 15      -0.000011460236
 16       0.000019466509
 17       0.000018034038
 18       0.000005739708
 19       0.000023386933
 20       0.000158307779
 21      -0.000131263313
 22      -0.000232269391
 23       0.000003390587
 24      -0.000108129950
 25       0.000030534991
 26      -0.000029328454
 27       0.000023208167
 28       0.000030051256
 29       0.000039371892
 30       0.000035809570
 31       0.000010692545
 32      -0.000000036676
 33      -0.000004478588
 34       0.000060902428
 35      -0.000255205557
 36       0.000561186398
 37       0.000007490225
 38      -0.000004027657
 39      -0.000000802465
 40       0.000021284917
 41       0.000016061472
 42       0.000013447099
 43       0.000321288904
 44       0.000200513590
 45       0.000158195352
 46      -0.000007456249
 47       0.000002773745
 48       0.000004375546
 49       0.000006051162
 50      -0.000002680614
 51       0.000040441555
 52      -0.000020844773
 53      -0.000006092837
 54      -0.000060915035
 55       0.000011706808
 56       0.000000858973
 57      -0.000003176685
 58      -0.000000001186
 59       0.000003439158
 60      -0.000003701861
 61      -0.000007249213
 62       0.000001260548
 63      -0.000153579276
 64      -0.000318558068
 65      -0.000009270330
 66       0.001560418480
 67      -0.001179933304
 68       0.000215009660
 69       0.000319528612
 70       0.000199859806
 71       0.000416328125
 72       0.000489307479
 73       0.000321754758
 74      -0.000130911794
 75      -0.000997111100
 76      -0.000523961108
 77      -0.000007477159
 78       0.000022115454
 79       0.000036983339
 80      -0.000024911584
 81       0.000037967345
 82      -0.000124237602
 83       0.000190652424
 84       0.000331581361
 85      -0.000140547298
 86       0.000280217393
 87      -0.000047499964
 88      -0.000001413059
 89       0.000003489909
 90      -0.000024908971
 91       0.000070947357
 92       0.000055911076
 93      -0.000012878736
 94       0.000088766765
 95       0.000282217374
 96      -0.001935200292
 97       0.000070100147
 98       0.000047657218
 99       0.000036038457
100       0.195753638301
101      -0.707448586835
102       0.923507791866
103       0.394313609687
104       0.009508654661
105      -0.002204181633
106       0.002805040886
107       0.005993089599
108       0.003521768208
109       0.000495535981
110       0.001451464126
111       0.000818306789
112      -0.000576691900
113      -0.001465289589
114      -0.000841692153
115       0.000037893849
116      -0.000011734576
117       0.000000504811
118      -0.000152468849
119       0.000373196700
120       0.000634659992
121      -0.000377833936
122       0.000644872432
123      -0.000024565989
124       0.000101958508
125       0.000082882563
126       0.000002004712
127       0.000169638745
128      -0.000156479403
129       0.000174050610
130       0.000494809074
131      -0.000336208084
132       0.000265536908
133      -0.000014190070
134       0.000005593335
135       0.000003380742
136      -0.000024943155
137       0.000020399806
138       0.000028734901
139       0.000013127668
 Sym=     1a
 Ene= -2.37688181512694E+00
 Spin= Alpha
 Occup= 2.000000
  1      -0.000067570947
  2      -0.000130365495
  3       0.000520960094
  4      -0.001530944760
  5      -0.000281020118
  6       0.000034262016
  7       0.000153066795
  8       0.000083170763
  9       0.000505823520
 10      -0.000327888433
 11      -0.000072230724
 12      -0.000651525944
 13      -0.000508231870
 14      -0.000374559081
 15       0.000024224063
 16       0.000040773983
 17       0.000051643925
 18      -0.000070766897
 19       0.000110192936
 20       0.000309076176
 21      -0.000001206800
 22      -0.000065398639
 23      -0.000313228062
 24       0.000324474392
 25       0.000042258098
 26      -0.000068645744
 27       0.000075892874
 28      -0.000058842358
 29       0.000091099058
 30       0.000127484258
 31       0.000165751786
 32      -0.000006150616
 33      -0.000011348746
 34      -0.000009347483
 35       0.000140897708
 36       0.000669420585
 37       0.000033638577
 38       0.000018346464
 39       0.000015654659
 40      -0.000093959271
 41       0.000114567942
 42       0.000040528546
 43      -0.000013916898
 44       0.000120751219
 45       0.000054055504
 46       0.000000788816
 47       0.000000792934
 48       0.000003659729
 49      -0.000004872632
 50       0.000003475269
 51       0.000004316537
 52      -0.000043539781
 53       0.000002580375
 54      -0.000045238419
 55      -0.000062619312
 56      -0.000010087665
 57      -0.000003927067
 58      -0.000006707892
 59       0.000012992735
 60      -0.000006356828
 61      -0.000025621344
 62      -0.000015456091
 63      -0.001325134753
 64      -0.002947105482
 65       0.002725730900
 66       0.006960180805
 67       0.001184809710
 68       0.001937561074
 69       0.002783223539
 70       0.001753193024
 71       0.002287411567
 72       0.003108732984
 73       0.001978545389
 74       0.000266395094
 75      -0.000379802008
 76      -0.000145618460
 77      -0.000048620423
 78       0.000091470461
 79       0.000126708636
 80      -0.000047127084
 81       0.000125605874
 82      -0.000443196232
 83       0.000926761193
 84       0.001551370279
 85      -0.000807264970
 86       0.001525889139
 87      -0.000278251195
 88       0.000012645024
 89       0.000013901785
 90      -0.000154420537
 91       0.000408878168
 92       0.000337684959
 93      -0.000087638121
 94       0.000028619349
 95       0.000278146026
 96      -0.000551850934
 97      -0.000014388926
 98       0.000082381863
 99       0.000038632653
100       0.001834519048
101      -0.006689929651
102       0.010325442755
103       0.001125815759
104      -0.000944026310
105       0.000552957145
106      -0.419573119010
107      -0.654781739790
108      -0.405637543498
109      -0.074876333209
110      -0.116698821543
111      -0.072313590676
112      -0.002661713421
113      -0.004182149861
114      -0.002587378731
115       0.000420259157
116       0.000522677513
117       0.000339485012
118       0.000701682604
119      -0.001404910359
120      -0.002626790793
121       0.001580265007
122      -0.002361452300
123       0.000273001144
124      -0.000508147850
125      -0.001057014494
126       0.000699046284
127      -0.000863067065
128      -0.000040728660
129      -0.000012022718
130       0.000119716373
131      -0.000124134151
132      -0.000028702237
133       0.000268762319
134      -0.000015702492
135      -0.000022447042
136       0.000180474416
137      -0.000403099135
138      -0.000354190704
139       0.000050534065
 Sym=     1a
 Ene= -2.37285371909213E+00
 Spin= Alpha
 Occup= 2.000000
  1      -0.000000240900
  2      -0.000001059012
  3       0.000003928353
  4       0.000003522017
  5       0.000006728315
  6      -0.000002025314
  7      -0.000000976654
  8       0.000007536607
  9       0.000010495544
 10       0.000012696930
 11      -0.000026756655
 12       0.000004917771
 13       0.000033677203
 14      -0.000106002461
 15      -0.000022644965
 16      -0.000007400624
 17      -0.000014447114
 18      -0.000009783629
 19       0.000007921286
 20       0.000021855805
 21       0.000139088109
 22      -0.000035690754
 23      -0.000033491348
 24      -0.000074031244
 25       0.000017787311
 26       0.000017793021
 27      -0.000016299725
 28      -0.000004091551
 29       0.000028538513
 30      -0.000021503797
 31       0.000007941554
 32      -0.000000022381
 33      -0.000000256107
 34       0.000002975889
 35      -0.000012844517
 36       0.000004458034
 37       0.000000255510
 38       0.000001745318
 39      -0.000002647802
 40       0.000011538614
 41       0.000017172995
 42      -0.000039981296
 43       0.000008965297
 44       0.000019348957
 45      -0.000030122691
 46       0.000000348259
 47      -0.000003976172
 48       0.000001847537
 49       0.000001836244
 50       0.000001581783
 51      -0.000006902973
 52       0.000017301872
 53      -0.000012471868
 54      -0.000011012125
 55      -0.000004485754
 56      -0.000001286157
 57       0.000003409819
 58      -0.000000015475
 59       0.000002881198
 60       0.000000891160
 61      -0.000000206462
 62       0.000002770405
 63      -0.000000657522
 64      -0.000001826079
 65       0.000005315579
 66      -0.000007648312
 67       0.000020781878
 68       0.000070825231
 69       0.000175076883
 70      -0.000353883598
 71       0.000111107575
 72       0.000272060073
 73      -0.000547295400
 74      -0.000045600464
 75      -0.000138829658
 76       0.000300946996
 77      -0.000018495891
 78      -0.000013096541
 79      -0.000010937055
 80      -0.000006714209
 81       0.000009639113
 82      -0.000462731424
 83      -0.000205281623
 84      -0.000305878857
 85      -0.000160193703
 86       0.000214158766
 87      -0.000005058632
 88      -0.000097492685
 89      -0.000133733171
 90       0.000000454360
 91      -0.000050654951
 92       0.000067063393
 93      -0.000004993034
 94       0.000000537878
 95       0.000005266390
 96      -0.000019720090
 97      -0.000004683234
 98      -0.000015358896
 99       0.000030842361
100       0.000003463650
101      -0.000012910869
102       0.000021277236
103      -0.000000000777
104      -0.000008042691
105       0.000004154464
106       0.153907356562
107       0.381666703741
108      -0.775283095248
109       0.027412164815
110       0.067961835043
111      -0.138053045909
112       0.001247586600
113       0.003098922033
114      -0.006281408444
115      -0.000213599283
116      -0.000534175058
117       0.001078618172
118      -0.002786605696
119      -0.000949669772
120      -0.001953719841
121      -0.001099103283
122       0.001171618693
123      -0.000995606661
124      -0.000268510913
125      -0.000726942150
126      -0.000423071715
127       0.000387146510
128       0.000214431057
129       0.000060445562
130       0.000154550247
131       0.000091511459
132      -0.000086046408
133      -0.000036744145
134      -0.000254969348
135      -0.000411751347
136       0.000046094677
137      -0.000148301477
138       0.000204570643
139       0.000019547023
 Sym=     1a
 Ene= -2.37257731128984E+00
 Spin= Alpha
 Occup= 2.000000
  1      -0.000014794463
  2      -0.000048285910
  3       0.000171653826
  4       0.000345438646
  5       0.000392085081
  6      -0.000026451528
  7       0.000105265631
  8       0.000047870197
  9       0.000333621017
 10      -0.000224248499
 11      -0.000047391730
 12      -0.000566954592
 13      -0.000689288680
 14      -0.000447839998
 15      -0.000028018207
 16      -0.000006282739
 17       0.000036044240
 18      -0.000016381200
 19      -0.000031855992
 20      -0.000055888164
 21      -0.000074694829
 22      -0.000201288835
 23       0.000290972348
 24      -0.000244552339
 25       0.000013243822
 26      -0.000025406438
 27       0.000001469615
 28       0.000050127935
 29      -0.000004607791
 30      -0.000037205918
 31      -0.000022472605
 32      -0.000002333355
 33      -0.000008128356
 34       0.000066151254
 35      -0.000320766169
 36      -0.000187427593
 37      -0.000007320487
 38       0.000005967034
 39       0.000001494559
 40       0.000166006307
 41      -0.000046635115
 42       0.000011037447
 43       0.000326448769
 44      -0.000040799464
 45       0.000041131210
 46      -0.000005115955
 47       0.000001295434
 48       0.000002712361
 49       0.000003747854
 50      -0.000003133089
 51       0.000040887650
 52       0.000002175302
 53      -0.000004872826
 54      -0.000042676807
 55       0.000050352430
 56       0.000002048626
 57      -0.000002890124
 58       0.000002188408
 59      -0.000001969301
 60      -0.000000986661
 61       0.000000234733
 62       0.000007402421
 63      -0.000029122107
 64      -0.000075990864
 65       0.000190408404
 66      -0.000185443177
 67       0.001036020680
 68       0.000359271949
 69      -0.000169458636
 70      -0.000011943508
 71       0.000633005046
 72      -0.000331183144
 73      -0.000039634753
 74       0.000350188799
 75       0.000528358554
 76       0.000322371449
 77       0.000002377138
 78       0.000012035205
 79       0.000003570318
 80       0.000005034687
 81       0.000020174175
 82      -0.000083643282
 83       0.000223628170
 84      -0.000217566002
 85       0.000598330914
 86       0.000188402887
 87      -0.000014632090
 88      -0.000012268201
 89      -0.000012409827
 90       0.000094299694
 91       0.000049124894
 92      -0.000020096877
 93      -0.000120987043
 94       0.000017685246
 95       0.000172076293
 96      -0.000925523964
 97       0.000030486494
 98       0.000000518280
 99       0.000004866220
100       0.000275695327
101      -0.001008158683
102       0.001727084318
103      -0.000148949529
104      -0.000467956688
105       0.000234502890
106       0.755233119173
107      -0.442105141064
108      -0.067710907458
109       0.134530037348
110      -0.078587352710
111      -0.011986422198
112       0.006342646078
113      -0.003419259419
114      -0.000420948888
115      -0.001073296433
116       0.000517208953
117       0.000039037903
118       0.000028538297
119       0.001443038116
120      -0.001161281168
121       0.002790203751
122       0.001929061738
123       0.000092060378
124       0.000533162729
125      -0.000463140375
126       0.000977863996
127       0.000792069347
128      -0.000032065649
129      -0.000186869494
130       0.000092641574
131      -0.000243401769
132      -0.000300279228
133      -0.000006963700
134       0.000012228471
135      -0.000050455725
136       0.000321851828
137       0.000147105491
138      -0.000018137179
139      -0.000448832886
 Sym=     1a
 Ene= -1.10266585783702E+00
 Spin= Alpha
 Occup= 2.000000
  1       0.063473882326
  2       0.133780610994
  3      -0.215355730269
  4      -0.132238186146
  5      -0.009094234554
  6      -0.014028068382
  7      -0.066948170659
  8      -0.036831273644
  9      -0.009060977021
 10      -0.022179931090
 11      -0.013129253049
 12       0.005237392144
 13       0.004127696320
 14       0.003138855399