[Molden Format]
[Title]
 Molden file created by orca_2mkl for BaseName=Ag

[Atoms] AU
Ag   1  19         -0.1387247955         1.0361935310         0.0000000000 
[GTO]
  1 0
s   2 1.0 
       19.0000000000        -5.5744918424
       15.4281999330        10.2449327281
s   1 1.0 
        6.0553507268         2.7511518957
s   1 1.0 
        1.4162368935         0.9252562343
s   1 1.0 
        0.6175863586         0.4965161317
s   1 1.0 
        0.1047419743         0.1312201890
s   1 1.0 
        0.0376851063         0.0609589392
p   4 1.0 
       13.1881801800         2.7578009658
        7.7952789138        -5.2823213825
        2.0351571912         1.9589709180
        0.9809391484         0.7961439746
p   1 1.0 
        0.4445117996         0.5173616168
p   1 1.0 
        0.1300000000         0.1112677429
p   1 1.0 
        0.0412000000         0.0264582800
d   4 1.0 
       25.7843973510         4.8243961623
       11.3966367550        -4.2106135660
        2.7345581361         6.4312805686
        1.1873583605         2.6277204894
d   1 1.0 
        0.4731691057         0.7695710997
d   1 1.0 
        0.1674601799         0.1249727430
f   1 1.0 
        1.3971100000        12.0995420129

[5D]
[7F]
[9G]
[MO]
 Sym=     1a
 Ene= -3.75853306583006E+00
 Spin= Alpha
 Occup= 1.000000
  1      -0.195790633960
  2       0.707808819179
  3      -0.924972780175
  4      -0.393127047209
  5      -0.008863074447
  6       0.002749855327
  7       0.000000000003
  8       0.000000000009
  9       0.000000000016
 10      -0.000000000013
 11      -0.000000000017
 12      -0.000000000002
 13       0.000000000014
 14       0.000000000023
 15       0.000000000007
 16      -0.000000000003
 17      -0.000000000009
 18      -0.000000000005
 19      -0.000000000003
 20      -0.000000000001
 21       0.000000000000
 22       0.000000000001
 23       0.000000000001
 24      -0.000000000000
 25       0.000000000003
 26      -0.000000000001
 27      -0.000000000007
 28      -0.000000000005
 29      -0.000000000001
 30      -0.000000000001
 31       0.000000000001
 32       0.000000000008
 33       0.000000000008
 34      -0.000000000000
 35      -0.000000000000
 36       0.000000000000
 37       0.000000000000
 38      -0.000000000000
 39      -0.000000000000
 40      -0.000000000000
 Sym=     1a
 Ene= -2.34403921445766E+00
 Spin= Alpha
 Occup= 1.000000
  1       0.000000000004
  2      -0.000000000014
  3       0.000000000021
  4       0.000000000007
  5      -0.000000000021
  6       0.000000000019
  7      -0.049995784188
  8       0.026838449595
  9       0.875206858972
 10      -0.008921824799
 11       0.004789362725
 12       0.156182013823
 13      -0.000499828762
 14       0.000268315204
 15       0.008749808981
 16       0.000088581485
 17      -0.000047551804
 18      -0.001550673198
 19      -0.000000000008
 20       0.000000000002
 21      -0.000000000001
 22       0.000000000000
 23       0.000000000000
 24      -0.000000000004
 25      -0.000000000000
 26      -0.000000000002
 27       0.000000000001
 28       0.000000000001
 29       0.000000000002
 30       0.000000000000
 31       0.000000000001
 32      -0.000000000002
 33      -0.000000000001
 34      -0.000000000004
 35      -0.000000000000
 36       0.000000000000
 37      -0.000000000000
 38       0.000000000000
 39      -0.000000000000
 40      -0.000000000000
 Sym=     1a
 Ene= -2.34403921444896E+00
 Spin= Alpha
 Occup= 1.000000
  1       0.000000000000
  2      -0.000000000001
  3       0.000000000001
  4       0.000000000004
  5       0.000000000003
  6      -0.000000000019
  7      -0.699804875051
  8      -0.528123592293
  9      -0.023780978042
 10      -0.124881259278
 11      -0.094244469581
 12      -0.004243752209
 13      -0.006996241983
 14      -0.005279872410
 15      -0.000237748382
 16       0.001239899635
 17       0.000935718341
 18       0.000042134639
 19       0.000000000003
 20       0.000000000005
 21       0.000000000004
 22      -0.000000000001
 23      -0.000000000004
 24      -0.000000000011
 25       0.000000000002
 26       0.000000000002
 27       0.000000000001
 28       0.000000000016
 29       0.000000000018
 30       0.000000000000
 31      -0.000000000002
 32      -0.000000000002
 33      -0.000000000024
 34       0.000000000000
 35      -0.000000000002
 36      -0.000000000002
 37       0.000000000000
 38       0.000000000000
 39      -0.000000000003
 40       0.000000000002
 Sym=     1a
 Ene= -2.34403921444633E+00
 Spin= Alpha
 Occup= 1.000000
  1      -0.000000000001
  2       0.000000000004
  3      -0.000000000008
  4       0.000000000003
  5       0.000000000002
  6       0.000000000001
  7       0.526289355024
  8      -0.699694287296
  9       0.051520344493
 10       0.093917147124
 11      -0.124861524738
 12       0.009193884935
 13       0.005261534757
 14      -0.006995136383
 15       0.000515070429
 16      -0.000932468469
 17       0.001239703715
 18      -0.000091282668
 19      -0.000000000001
 20      -0.000000000004
 21       0.000000000005
 22       0.000000000001
 23      -0.000000000002
 24       0.000000000000
 25      -0.000000000002
 26       0.000000000004
 27      -0.000000000004
 28       0.000000000005
 29      -0.000000000002
 30       0.000000000001
 31      -0.000000000004
 32       0.000000000006
 33      -0.000000000009
 34      -0.000000000000
 35       0.000000000001
 36      -0.000000000002
 37      -0.000000000000
 38       0.000000000000
 39       0.000000000002
 40       0.000000000003
 Sym=     1a
 Ene= -3.36535730694992E-01
 Spin= Alpha
 Occup= 1.000000
  1       0.000000000000
  2      -0.000000000001
  3       0.000000000000
  4       0.000000000005
  5      -0.000000000019
  6       0.000000000015
  7       0.000000000001
  8      -0.000000000006
  9       0.000000000003
 10       0.000000000006
 11      -0.000000000014
 12      -0.000000000005
 13      -0.000000000019
 14       0.000000000057
 15       0.000000000004
 16      -0.000000000021
 17       0.000000000053
 18       0.000000000004
 19       0.000823565853
 20      -0.200763704193
 21       0.608159936005
 22       0.000023490012
 23      -0.022550393088
 24       0.000476612245
 25      -0.116185535820
 26       0.351953000283
 27       0.000013594088
 28      -0.013050314625
 29       0.000243238917
 30      -0.059295252557
 31       0.179619105572
 32       0.000006937739
 33      -0.006660224054
 34      -0.000000000000
 35      -0.000000000000
 36       0.000000000000
 37       0.000000000000
 38      -0.000000000000
 39      -0.000000000000
 40       0.000000000000
 Sym=     1a
 Ene= -3.36535730692177E-01
 Spin= Alpha
 Occup= 1.000000
  1      -0.000000000000
  2       0.000000000001
  3      -0.000000000001
  4      -0.000000000002
  5       0.000000000004
  6       0.000000000001
  7      -0.000000000015
  8      -0.000000000005
  9      -0.000000000004
 10       0.000000000006
 11       0.000000000003
 12      -0.000000000001
 13       0.000000000007
 14       0.000000000000
 15       0.000000000017
 16      -0.000000000001
 17      -0.000000000001
 18      -0.000000000008
 19       0.000955320243
 20      -0.608517212543
 21      -0.200938810995
 22       0.000994064384
 23      -0.001505723470
 24       0.000552860859
 25      -0.352159762529
 26      -0.116286873262
 27       0.000575282787
 28      -0.000871389024
 29       0.000282152377
 30      -0.179724626739
 31      -0.059346970040
 32       0.000293595393
 33      -0.000444713120
 34      -0.000000000000
 35      -0.000000000000
 36      -0.000000000000
 37       0.000000000000
 38       0.000000000000
 39       0.000000000000
 40       0.000000000000
 Sym=     1a
 Ene= -3.36535730678036E-01
 Spin= Alpha
 Occup= 1.000000
  1      -0.000000000003
  2       0.000000000009
  3      -0.000000000041
  4       0.000000000068
  5      -0.000000000051
  6      -0.000000000027
  7      -0.000000000013
  8      -0.000000000008
  9      -0.000000000006
 10       0.000000000044
 11       0.000000000058
 12      -0.000000000003
 13      -0.000000000044
 14      -0.000000000068
 15       0.000000000020
 16      -0.000000000060
 17      -0.000000000104
 18       0.000000000017
 19       0.009249898892
 20       0.008517934955
 21      -0.020945432235
 22       0.001510912854
 23      -0.640370722204
 24       0.005353081421
 25       0.004929480858
 26      -0.012121495154
 27       0.000874392207
 28      -0.370593956786
 29       0.002731943514
 30       0.002515759044
 31      -0.006186201328
 32       0.000446245804
 33      -0.189132511834
 34       0.000000000000
 35       0.000000000000
 36       0.000000000000
 37      -0.000000000000
 38      -0.000000000000
 39      -0.000000000000
 40       0.000000000000
 Sym=     1a
 Ene= -3.36535730340938E-01
 Spin= Alpha
 Occup= 1.000000
  1       0.000000000004
  2      -0.000000000018
  3      -0.000000000019
  4       0.000000000182
  5      -0.000000000389
  6       0.000000000151
  7      -0.000000000002
  8       0.000000000002
  9      -0.000000000006
 10       0.000000000020
 11      -0.000000000003
 12      -0.000000000010
 13      -0.000000000022
 14      -0.000000000001
 15       0.000000000041
 16      -0.000000000040
 17       0.000000000008
 18       0.000000000024
 19       0.146487075668
 20      -0.000668301250
 21      -0.000370894013
 22      -0.623870423148
 23       0.000647207584
 24       0.084774683104
 25      -0.000386757850
 26      -0.000214642979
 27      -0.361044939777
 28       0.000374550571
 29       0.043264733463
 30      -0.000197381752
 31      -0.000109542979
 32      -0.184259174182
 33       0.000191151765
 34       0.000000000000
 35      -0.000000000000
 36      -0.000000000000
 37      -0.000000000000
 38       0.000000000000
 39      -0.000000000000
 40      -0.000000000000
 Sym=     1a
 Ene= -3.36535730335949E-01
 Spin= Alpha
 Occup= 1.000000
  1       0.000000000006
  2      -0.000000000028
  3      -0.000000000039
  4       0.000000000338
  5      -0.000000001148
  6       0.000000001096
  7      -0.000000000003
  8      -0.000000000008
  9       0.000000000012
 10       0.000000000036
 11       0.000000000029
 12      -0.000000000023
 13      -0.000000000049
 14      -0.000000000029
 15       0.000000000047
 16      -0.000000000061
 17      -0.000000000043
 18      -0.000000000001
 19       0.623801375780
 20       0.001227599733
 21      -0.000097506250
 22       0.146479332431
 23       0.009375687990
 24       0.361004980883
 25       0.000710433860
 26      -0.000056428606
 27       0.084770201941
 28       0.005425877868
 29       0.184238781053
 30       0.000362569694
 31      -0.000028798322
 32       0.043262446545
 33       0.002769095044
 34       0.000000000000
 35      -0.000000000000
 36       0.000000000000
 37       0.000000000000
 38       0.000000000000
 39      -0.000000000000
 40       0.000000000000
 Sym=     1a
 Ene= -1.96080134383497E-01
 Spin= Alpha
 Occup= 1.000000
  1       0.057440430889
  2      -0.221249354795
  3       0.402406536212
  4       0.196446792894
  5      -0.776972536031
  6      -0.373678101611
  7      -0.000000000014
  8      -0.000000000013
  9       0.000000000082
 10       0.000000000016
 11       0.000000000060
 12       0.000000000081
 13       0.000000000064
 14      -0.000000000080
 15      -0.000000000497
 16      -0.000000000063
 17      -0.000000000016
 18       0.000000000224
 19      -0.000000000060
 20       0.000000000002
 21      -0.000000000003
 22       0.000000000147
 23       0.000000000011
 24       0.000000000203
 25       0.000000000007
 26      -0.000000000005
 27      -0.000000000012
 28       0.000000000072
 29      -0.000000000217
 30      -0.000000000022
 31       0.000000000013
 32       0.000000000106
 33      -0.000000000028
 34       0.000000000000
 35       0.000000000001
 36       0.000000000001
 37       0.000000000000
 38       0.000000000000
 39      -0.000000000001
 40       0.000000000001
 Sym=     1a
 Ene= -1.10712881065615E-02
 Spin= Alpha
 Occup= 0.000000
  1       0.000000000013
  2      -0.000000000044
  3       0.000000000109
  4      -0.000000000065
  5       0.000000000060
  6      -0.000000000200
  7      -0.014977190400
  8      -0.000315843919
  9      -0.170354774756
 10      -0.000565131280
 11      -0.000011917683
 12      -0.006427962903
 13       0.021921594280
 14       0.000462289803
 15       0.249342378452
 16       0.072073269454
 17       0.001519904847
 18       0.819781633216
 19      -0.000000000043
 20       0.000000000012
 21       0.000000000004
 22       0.000000000044
 23       0.000000000030
 24      -0.000000000034
 25       0.000000000023
 26      -0.000000000003
 27      -0.000000000034
 28      -0.000000000027
 29       0.000000000067
 30      -0.000000000047
 31      -0.000000000002
 32       0.000000000057
 33       0.000000000039
 34       0.000000000001
 35       0.000000000000
 36      -0.000000000000
 37       0.000000000000
 38       0.000000000000
 39      -0.000000000000
 40      -0.000000000000
 Sym=     1a
 Ene= -1.10712880997176E-02
 Spin= Alpha
 Occup= 0.000000
  1       0.000000000010
  2      -0.000000000036
  3       0.000000000165
  4      -0.000000000272
  5       0.000000000467
  6      -0.000000000395
  7      -0.170141617644
  8      -0.008530342022
  9       0.014974265620
 10      -0.006419919142
 11      -0.000321873795
 12       0.000565021000
 13       0.249030386707
 14       0.012485566047
 15      -0.021917313533
 16       0.818755876094
 17       0.041049731430
 18      -0.072059194921
 19       0.000000000041
 20      -0.000000000003
 21       0.000000000027
 22      -0.000000000011
 23      -0.000000000029
 24       0.000000000078
 25       0.000000000010
 26      -0.000000000019
 27      -0.000000000015
 28      -0.000000000055
 29       0.000000000001
 30      -0.000000000016
 31       0.000000000034
 32      -0.000000000018
 33      -0.000000000029
 34      -0.000000000000
 35       0.000000000003
 36      -0.000000000001
 37       0.000000000000
 38      -0.000000000000
 39      -0.000000000005
 40      -0.000000000001
 Sym=     1a
 Ene= -1.10712879524583E-02
 Spin= Alpha
 Occup= 0.000000
  1      -0.000000000022
  2       0.000000000078
  3      -0.000000000242
  4       0.000000000248
  5      -0.000000000219
  6       0.000000000226
  7      -0.008525205979
  8       0.170799001457
  9       0.000432848478
 10      -0.000321679773
 11       0.006444724784
 12       0.000016332585
 13       0.012478048321
 14      -0.249992578561
 15      -0.000633545312
 16       0.041025015078
 17      -0.821919339137
 18      -0.002082954422
 19      -0.000000000015
 20      -0.000000000032
 21       0.000000000095
 22      -0.000000000004
 23       0.000000000041
 24      -0.000000000033
 25       0.000000000023
 26      -0.000000000078
 27      -0.000000000013
 28       0.000000000084
 29      -0.000000000017
 30      -0.000000000042
 31       0.000000000141
 32      -0.000000000011
 33       0.000000000040
 34      -0.000000000000
 35       0.000000000001
 36      -0.000000000003
 37      -0.000000000000
 38      -0.000000000000
 39      -0.000000000002
 40      -0.000000000005
 Sym=     1a
 Ene= 9.53703643726206E-02
 Spin= Alpha
 Occup= 0.000000
  1      -0.040875632645
  2       0.160740951968
  3      -0.249395248919
  4      -0.342959528092
  5       1.994092940563
  6      -1.869850614148
  7       0.000000000093
  8      -0.000000000023
  9      -0.000000000192
 10       0.000000000178
 11      -0.000000000068
 12      -0.000000001093
 13      -0.000000000787
 14       0.000000000352
 15       0.000000004062
 16       0.000000000378
 17      -0.000000000355
 18      -0.000000002962
 19       0.000000001022
 20       0.000000000013
 21       0.000000000009
 22       0.000000000019
 23      -0.000000000025
 24       0.000000002586
 25       0.000000000027
 26       0.000000000022
 27       0.000000000004
 28       0.000000000010
 29      -0.000000004780
 30      -0.000000000068
 31      -0.000000000035
 32       0.000000000011
 33       0.000000000058
 34      -0.000000000000
 35       0.000000000001
 36       0.000000000001
 37      -0.000000000000
 38      -0.000000000000
 39      -0.000000000001
 40       0.000000000001
 Sym=     1a
 Ene= 1.99025296161913E-01
 Spin= Alpha
 Occup= 0.000000
  1       0.000000000002
  2       0.000000000011
  3       0.000000000127
  4      -0.000000000531
  5       0.000000001424
  6      -0.000000001192
  7      -0.246601040204
  8       0.002093458746
  9       0.017076251976
 10      -0.190489505607
 11       0.001617113799
 12       0.013190726140
 13       1.512340114344
 14      -0.012838638933
 15      -0.104724216973
 16      -1.138625086038
 17       0.009666077281
 18       0.078845769857
 19       0.000000000005
 20       0.000000000004
 21       0.000000000005
 22       0.000000000008
 23       0.000000000015
 24       0.000000000001
 25      -0.000000000012
 26      -0.000000000018
 27       0.000000000017
 28       0.000000000043
 29      -0.000000000002
 30       0.000000000021
 31       0.000000000033
 32      -0.000000000037
 33      -0.000000000090
 34       0.000000000000
 35      -0.000000000002
 36      -0.000000000000
 37      -0.000000000000
 38       0.000000000000
 39      -0.000000000001
 40       0.000000000000
 Sym=     1a
 Ene= 1.99025296389020E-01
 Spin= Alpha
 Occup= 0.000000
  1       0.000000000055
  2      -0.000000000202
  3       0.000000000561
  4      -0.000000000397
  5      -0.000000000280
  6       0.000000000341
  7      -0.002109356422
  8      -0.247191383202
  9      -0.000157206709
 10      -0.001629393927
 11      -0.190945521621
 12      -0.000121435935
 13       0.012936134615
 14       1.515960533497
 15       0.000964107899
 16      -0.009739480691
 17      -1.141350862935
 18      -0.000725866773
 19      -0.000000000010
 20       0.000000000006
 21      -0.000000000010
 22      -0.000000000008
 23       0.000000000024
 24      -0.000000000028
 25      -0.000000000018
 26       0.000000000050
 27      -0.000000000010
 28       0.000000000065
 29       0.000000000060
 30       0.000000000032
 31      -0.000000000094
 32       0.000000000023
 33      -0.000000000140
 34      -0.000000000000
 35      -0.000000000000
 36      -0.000000000002
 37       0.000000000000
 38      -0.000000000000
 39      -0.000000000000
 40       0.000000000001
 Sym=     1a
 Ene= 1.99025296524633E-01
 Spin= Alpha
 Occup= 0.000000
  1       0.000000000154
  2      -0.000000000598
  3       0.000000001198
  4       0.000000000402
  5      -0.000000004806
  6       0.000000004286
  7      -0.017074295512
  8       0.000302536840
  9      -0.246609876403
 10      -0.013189214841
 11       0.000233697695
 12      -0.190496330005
 13       0.104712218446
 14      -0.001855379865
 15       1.512394300805
 16      -0.078836736251
 17       0.001396896138
 18      -1.138665882642
 19      -0.000000000067
 20       0.000000000033
 21       0.000000000006
 22       0.000000000009
 23       0.000000000007
 24      -0.000000000139
 25       0.000000000064
 26       0.000000000002
 27      -0.000000000028
 28      -0.000000000015
 29       0.000000000294
 30      -0.000000000138
 31      -0.000000000006
 32       0.000000000050
 33       0.000000000026
 34       0.000000000001
 35      -0.000000000000
 36       0.000000000000
 37       0.000000000000
 38      -0.000000000000
 39      -0.000000000000
 40      -0.000000000000
 Sym=     1a
 Ene= 4.12168297216468E-01
 Spin= Alpha
 Occup= 0.000000
  1      -0.000000000003
  2       0.000000000011
  3      -0.000000000030
  4       0.000000000021
  5       0.000000000008
  6      -0.000000000001
  7       0.000000000045
  8      -0.000000000141
  9      -0.000000000012
 10      -0.000000000052
 11       0.000000000164
 12       0.000000000000
 13      -0.000000000008
 14       0.000000000004
 15       0.000000000037
 16       0.000000000000
 17       0.000000000026
 18      -0.000000000019
 19       0.002395904196
 20      -0.033985185000
 21      -0.290717931822
 22      -0.000488567745
 23       0.009258618988
 24       0.003432198597
 25      -0.048684711427
 26      -0.416461426206
 27      -0.000699886722
 28       0.013263226099
 29      -0.009449319597
 30       0.134035774647
 31       1.146576168210
 32       0.001926885382
 33      -0.036515504236
 34      -0.000000000000
 35      -0.000000000000
 36       0.000000000000
 37      -0.000000000000
 38       0.000000000001
 39      -0.000000000000
 40       0.000000000000
 Sym=     1a
 Ene= 4.12168297261225E-01
 Spin= Alpha
 Occup= 0.000000
  1      -0.000000000026
  2       0.000000000092
  3      -0.000000000323
  4       0.000000000405
  5      -0.000000000482
  6       0.000000000406
  7       0.000000000022
  8       0.000000000025
  9      -0.000000000051
 10       0.000000000026
 11       0.000000000061
 12       0.000000000053
 13      -0.000000000119
 14      -0.000000000205
 15       0.000000000025
 16       0.000000000069
 17       0.000000000110
 18      -0.000000000009
 19       0.017320859001
 20      -0.003131653478
 21       0.009822095781
 22      -0.006601509182
 23       0.292085153720
 24       0.024812606450
 25      -0.004486179657
 26       0.014070422112
 27      -0.009456843354
 28       0.418420008276
 29      -0.068312553023
 30       0.012351075897
 31      -0.038737826980
 32       0.026036003589
 33      -1.151968417898
 34      -0.000000000000
 35       0.000000000001
 36       0.000000000003
 37       0.000000000000
 38      -0.000000000000
 39      -0.000000000003
 40       0.000000000004
 Sym=     1a
 Ene= 4.12168297343198E-01
 Spin= Alpha
 Occup= 0.000000
  1      -0.000000000022
  2       0.000000000084
  3      -0.000000000201
  4       0.000000000043
  5       0.000000000466
  6      -0.000000000456
  7       0.000000000014
  8      -0.000000000061
  9       0.000000000068
 10      -0.000000000013
 11       0.000000000076
 12      -0.000000000020
 13       0.000000000004
 14      -0.000000000006
 15      -0.000000000185
 16      -0.000000000019
 17       0.000000000013
 18       0.000000000108
 19      -0.023036065187
 20       0.289870613099
 21      -0.033902069725
 22       0.005080108745
 23       0.005728824251
 24      -0.032999796382
 25       0.415247618279
 26      -0.048565646427
 27       0.007277395379
 28       0.008206698150
 29       0.090853024312
 30      -1.143234386867
 31       0.133707972250
 32      -0.020035680566
 33      -0.022594180239
 34       0.000000000000
 35       0.000000000000
 36       0.000000000000
 37       0.000000000000
 38      -0.000000000000
 39      -0.000000000000
 40       0.000000000000
 Sym=     1a
 Ene= 4.12168297398096E-01
 Spin= Alpha
 Occup= 0.000000
  1       0.000000000047
  2      -0.000000000170
  3       0.000000000496
  4      -0.000000000399
  5      -0.000000000157
  6       0.000000000291
  7      -0.000000000000
  8       0.000000000000
  9       0.000000000066
 10      -0.000000000027
 11       0.000000000013
 12      -0.000000000079
 13       0.000000000061
 14      -0.000000000030
 15       0.000000000001
 16      -0.000000000030
 17       0.000000000013
 18      -0.000000000009
 19       0.013841653002
 20       0.006326014564
 21      -0.000368135555
 22      -0.292365977042
 23      -0.007348470938
 24       0.019828548345
 25       0.009062189687
 26      -0.000527364297
 27      -0.418822296016
 28      -0.010526886487
 29      -0.054590748437
 30      -0.024949467294
 31       0.001451907180
 32       1.153075970520
 33       0.028981981156
 34       0.000000000000
 35      -0.000000000001
 36       0.000000000000
 37       0.000000000000
 38      -0.000000000000
 39      -0.000000000001
 40      -0.000000000000
 Sym=     1a
 Ene= 4.12168297612931E-01
 Spin= Alpha
 Occup= 0.000000
  1      -0.000000000276
  2       0.000000001050
  3      -0.000000002366
  4       0.000000000108
  5       0.000000007146
  6      -0.000000007142
  7      -0.000000000023
  8       0.000000000018
  9       0.000000000104
 10       0.000000000066
 11       0.000000000022
 12      -0.000000000016
 13      -0.000000000064
 14      -0.000000000099
 15      -0.000000000338
 16       0.000000000031
 17       0.000000000054
 18       0.000000000207
 19      -0.291093809249
 20      -0.023104524403
 21       0.000857007257
 22      -0.014700994572
 23       0.016653270617
 24      -0.416999880331
 25      -0.033097866048
 26       0.001227686440
 27      -0.021059578612
 28       0.023856267749
 29       1.148058607490
 30       0.091123023823
 31      -0.003379991346
 32       0.057979945939
 33      -0.065679619626
 34       0.000000000000
 35       0.000000000002
 36       0.000000000001
 37       0.000000000000
 38       0.000000000000
 39      -0.000000000002
 40       0.000000000001
 Sym=     1a
 Ene= 1.62195044758254E+00
 Spin= Alpha
 Occup= 0.000000
  1      -0.000000000150
  2       0.000000000567
  3      -0.000000001849
  4       0.000000001806
  5      -0.000000000662
  6       0.000000000259
  7       0.731949638292
  8      -1.097349052808
  9      -0.083455565225
 10      -1.178417022769
 11       1.766699149954
 12       0.134360963603
 13       0.714653654292
 14      -1.071418673855
 15      -0.081483508641
 16      -0.254380956037
 17       0.381371458985
 18       0.029004053545
 19      -0.000000000054
 20      -0.000000000129
 21       0.000000000395
 22      -0.000000000007
 23      -0.000000000023
 24       0.000000000066
 25       0.000000000160
 26      -0.000000000483
 27       0.000000000006
 28       0.000000000033
 29      -0.000000000017
 30      -0.000000000049
 31       0.000000000134
 32      -0.000000000011
 33       0.000000000004
 34      -0.000000000002
 35      -0.000000000003
 36       0.000000000006
 37      -0.000000000000
 38      -0.000000000000
 39      -0.000000000020
 40      -0.000000000026
 Sym=     1a
 Ene= 1.62195044771690E+00
 Spin= Alpha
 Occup= 0.000000
  1      -0.000000000037
  2       0.000000000130
  3      -0.000000000478
  4       0.000000000620
  5      -0.000000000734
  6       0.000000000583
  7      -0.595948057745
  8      -0.479482201536
  9       1.077883471841
 10       0.959458546322
 11       0.771952001701
 12      -1.735360146956
 13      -0.581865793722
 14      -0.468152028034
 15       1.052413065188
 16       0.207115119393
 17       0.166638706567
 18      -0.374606413093
 19      -0.000000000051
 20      -0.000000000050
 21       0.000000000081
 22       0.000000000127
 23       0.000000000179
 24       0.000000000078
 25       0.000000000054
 26      -0.000000000098
 27      -0.000000000154
 28      -0.000000000220
 29      -0.000000000080
 30      -0.000000000000
 31       0.000000000025
 32       0.000000000039
 33       0.000000000093
 34       0.000000000029
 35       0.000000000005
 36       0.000000000004
 37       0.000000000001
 38       0.000000000001
 39       0.000000000013
 40      -0.000000000010
 Sym=     1a
 Ene= 1.62195044774824E+00
 Spin= Alpha
 Occup= 0.000000
  1       0.000000000526
  2      -0.000000001979
  3       0.000000006454
  4      -0.000000006344
  5       0.000000002411
  6      -0.000000000960
  7       0.925194945692
  8       0.559295916991
  9       0.760323903157
 10      -1.489536187139
 11      -0.900449696114
 12      -1.224098740537
 13       0.903332571439
 14       0.546079743889
 15       0.742357435093
 16      -0.321541213466
 17      -0.194377075735
 18      -0.264242116712
 19       0.000000000017
 20      -0.000000000025
 21      -0.000000000097
 22       0.000000000107
 23      -0.000000000057
 24      -0.000000000013
 25       0.000000000029
 26       0.000000000119
 27      -0.000000000132
 28       0.000000000072
 29       0.000000000015
 30      -0.000000000010
 31      -0.000000000038
 32       0.000000000033
 33      -0.000000000069
 34       0.000000000020
 35      -0.000000000007
 36      -0.000000000005
 37       0.000000000001
 38       0.000000000001
 39      -0.000000000020
 40       0.000000000011
 Sym=     1a
 Ene= 1.87539588443601E+00
 Spin= Alpha
 Occup= 0.000000
  1       0.272103012620
  2      -1.034838101332
  3       3.430583424822
  4      -3.434035767602
  5       1.460006263898
  6      -0.656260217240
  7      -0.000000001392
  8      -0.000000001655
  9      -0.000000001259
 10       0.000000002315
 11       0.000000002763
 12       0.000000002108
 13      -0.000000001556
 14      -0.000000001889
 15      -0.000000001468
 16       0.000000000560
 17       0.000000000692
 18       0.000000000590
 19      -0.000000001537
 20       0.000000000073
 21      -0.000000000065
 22       0.000000000352
 23       0.000000000768
 24       0.000000001907
 25      -0.000000000103
 26       0.000000000087
 27      -0.000000000437
 28      -0.000000001007
 29      -0.000000000429
 30       0.000000000045
 31      -0.000000000032
 32       0.000000000081
 33       0.000000000318
 34       0.000000000004
 35       0.000000000000
 36      -0.000000000003
 37      -0.000000000001
 38       0.000000000002
 39       0.000000000003
 40       0.000000000000
 Sym=     1a
 Ene= 2.06185858094931E+00
 Spin= Alpha
 Occup= 0.000000
  1      -0.000000000014
  2       0.000000000053
  3      -0.000000000174
  4       0.000000000177
  5      -0.000000000083
  6       0.000000000041
  7       0.000000000116
  8      -0.000000000418
  9      -0.000000000021
 10      -0.000000000196
 11       0.000000000696
 12       0.000000000034
 13       0.000000000133
 14      -0.000000000458
 15      -0.000000000020
 16      -0.000000000037
 17       0.000000000128
 18       0.000000000008
 19       0.000533862247
 20      -0.099967327816
 21      -1.095318896764
 22       0.000159214880
 23       0.001332923559
 24      -0.000760537644
 25       0.142412984548
 26       1.560386143455
 27      -0.000226816769
 28      -0.001898876626
 29       0.000339335478
 30      -0.063541599331
 31      -0.696210612099
 32       0.000101200746
 33       0.000847237758
 34       0.000000000001