[Molden Format]
[Title]
 Molden file created by orca_2mkl for BaseName=COO-Ag+

[Atoms] AU
C    1   6         -5.9746043100        -0.0266969114        -0.0169374905 
O    2   8         -3.6327709026         0.3063393161        -0.0636587653 
O    3   8         -7.6059973891         1.6854879169        -0.0610102776 
H    4   1         -6.6579037236        -1.9960814977         0.0708945958 
Ag   5  18         -4.3731940820         4.5824699533        -0.2231026816 
[GTO]
  1 0
s   6 1.0 
    13575.3496820000         0.5435905310
     2035.2333680000         1.0145543947
      463.2256235900         1.7315731970
      131.2001959800         2.6910376290
       42.8530158910         3.6044547126
       15.5841857660         3.7025556986
s   2 1.0 
        6.2067138508         1.8383540830
        2.5764896527         0.5447575605
s   1 1.0 
        0.5769633942         0.4718145038
s   1 1.0 
        0.2297283136         0.2364944676
s   1 1.0 
        0.0951644400         0.1221141848
p   4 1.0 
       34.6972322440         1.3596651507
        7.9582622826         1.4512589486
        2.3780826883         1.2709231419
        0.8143320818         0.8025721189
p   1 1.0 
        0.2888754725         0.3018758868
p   1 1.0 
        0.1005682367         0.0807265016
d   1 1.0 
        1.0970000000         3.3522135855
d   1 1.0 
        0.3180000000         0.3838994974
f   1 1.0 
        0.7610000000         3.0840084332

  2 0
s   6 1.0 
    27032.3826310000         0.8598581479
     4052.3871392000         1.6055305368
      922.3272271000         2.7458778516
      261.2407098900         4.2987674426
       85.3546413510         5.8797663284
       31.0350352450         6.3163983216
s   2 1.0 
       12.2608607280         2.9812147522
        4.9987076005         0.9419559635
s   1 1.0 
        1.1703108158         0.8019291610
s   1 1.0 
        0.4647474099         0.4011648062
s   1 1.0 
        0.1850453636         0.2010799406
p   4 1.0 
       63.2749548010         3.0572017144
       14.6270493790         3.3844839414
        4.4501223456         2.9474262132
        1.5275799647         1.7118271494
p   1 1.0 
        0.5293511794         0.6436057926
p   1 1.0 
        0.1747842127         0.1610897254
d   1 1.0 
        2.3140000000        12.3767310624
d   1 1.0 
        0.6450000000         1.3234257612
f   1 1.0 
        1.4280000000        12.7097950062

  3 0
s   6 1.0 
    27032.3826310000         0.8598581479
     4052.3871392000         1.6055305368
      922.3272271000         2.7458778516
      261.2407098900         4.2987674426
       85.3546413510         5.8797663284
       31.0350352450         6.3163983216
s   2 1.0 
       12.2608607280         2.9812147522
        4.9987076005         0.9419559635
s   1 1.0 
        1.1703108158         0.8019291610
s   1 1.0 
        0.4647474099         0.4011648062
s   1 1.0 
        0.1850453636         0.2010799406
p   4 1.0 
       63.2749548010         3.0572017144
       14.6270493790         3.3844839414
        4.4501223456         2.9474262132
        1.5275799647         1.7118271494
p   1 1.0 
        0.5293511794         0.6436057926
p   1 1.0 
        0.1747842127         0.1610897254
d   1 1.0 
        2.3140000000        12.3767310624
d   1 1.0 
        0.6450000000         1.3234257612
f   1 1.0 
        1.4280000000        12.7097950062

  4 0
s   3 1.0 
       34.0613410000         0.2556299169
        5.1235746000         0.4613599649
        1.1646626000         0.6811214941
s   1 1.0 
        0.3272304100         0.3083545312
s   1 1.0 
        0.1030724100         0.1296483265
p   1 1.0 
        0.8000000000         1.0784563492

  5 0
s   2 1.0 
       19.0000000000        -5.5744918424
       15.4281999330        10.2449327281
s   1 1.0 
        6.0553507268         2.7511518957
s   1 1.0 
        1.4162368935         0.9252562343
s   1 1.0 
        0.6175863586         0.4965161317
s   1 1.0 
        0.1047419743         0.1312201890
s   1 1.0 
        0.0376851063         0.0609589392
p   4 1.0 
       13.1881801800         2.7578009658
        7.7952789138        -5.2823213825
        2.0351571912         1.9589709180
        0.9809391484         0.7961439746
p   1 1.0 
        0.4445117996         0.5173616168
p   1 1.0 
        0.1300000000         0.1112677429
p   1 1.0 
        0.0412000000         0.0264582800
d   4 1.0 
       25.7843973510         4.8243961623
       11.3966367550        -4.2106135660
        2.7345581361         6.4312805686
        1.1873583605         2.6277204894
d   1 1.0 
        0.4731691057         0.7695710997
d   1 1.0 
        0.1674601799         0.1249727430
f   1 1.0 
        1.3971100000        12.0995420129

[5D]
[7F]
[9G]
[MO]
 Sym=     1a
 Ene= -1.91825538851898E+01
 Spin= Alpha
 Occup= 2.000000
  1       0.000033442515
  2      -0.000209343605
  3       0.000792829610
  4       0.000977610597
  5      -0.003490209635
  6       0.000569523991
  7       0.000136408054
  8      -0.000013461936
  9       0.006162974108
 10      -0.000458398432
 11      -0.000070535876
 12      -0.002525121013
 13      -0.002254980957
 14       0.000125511142
 15      -0.000232574971
 16      -0.000017074467
 17      -0.000002912261
 18       0.000383206547
 19       0.000150379938
 20      -0.000549599827
 21      -0.000107658780
 22       0.000042299303
 23       0.002552058672
 24       0.001454147694
 25       0.000009233347
 26      -0.000244358638
 27      -0.000005811297
 28       0.000005114015
 29      -0.000021726950
 30       0.000183925810
 31       0.000142818670
 32       0.435345962365
 33       0.639640584244
 34       0.033972696508
 35      -0.025084764513
 36       0.010582113236
 37      -0.001941915265
 38       0.000076584747
 39       0.000025379622
 40       0.004745726347
 41       0.000197779713
 42      -0.000075966683
 43      -0.001339731060
 44       0.001002453214
 45      -0.000020561709
 46      -0.000082732044
 47      -0.000009581618
 48       0.000004985656
 49       0.000270534307
 50       0.000092792459
 51       0.000446213760
 52       0.000041639171
 53      -0.000009974936
 54      -0.001145663761
 55      -0.000359353575
 56       0.000006139329
 57      -0.000122007193
 58      -0.000024834217
 59      -0.000007049228
 60      -0.000003353010
 61      -0.000124718938
 62      -0.000055342314
 63      -0.006135036200
 64      -0.009046504856
 65      -0.000457029415
 66       0.001372862658
 67       0.002984586680
 68       0.000018289279
 69       0.000053233410
 70      -0.000002364359
 71       0.000648812553
 72      -0.000826887025
 73       0.000023310268
 74       0.001574797595
 75       0.000235105269
 76      -0.000032074710
 77      -0.000072052390
 78      -0.000001735371
 79      -0.000005442029
 80      -0.000011829801
 81       0.000002789084
 82       0.000141866412
 83       0.000012762167
 84       0.000016059773
 85       0.000066761108
 86      -0.000258770236
 87       0.000003212827
 88       0.000052195862
 89      -0.000052054593
 90       0.000006704028
 91      -0.000000731812
 92       0.000065527734
 93       0.000023185037
 94       0.000245972016
 95       0.000531197800
 96      -0.001306420766
 97       0.000141801368
 98       0.000057872508
 99      -0.000004342027
100      -0.000009811889
101       0.000027773571
102      -0.000117524911
103       0.000335226172
104      -0.000859859662
105       0.000361130539
106      -0.000006990135
107      -0.000032179940
108       0.000001366212
109      -0.000014821737
110       0.000071554819
111      -0.000002589727
112       0.000152820263
113       0.000835938993
114      -0.000035605264
115      -0.000195988535
116      -0.000245557686
117       0.000012589099
118       0.000016474273
119      -0.000001138377
120       0.000000674368
121       0.000002060555
122       0.000038426667
123       0.000002897175
124       0.000002305356
125       0.000005017696
126       0.000089434626
127      -0.000089193895
128       0.000380892841
129       0.000004355228
130       0.000032838754
131       0.000185358077
132       0.000065331021
133       0.000003130231
134      -0.000006184656
135      -0.000029710787
136       0.000002542417
137      -0.000000554035
138      -0.000004194187
139       0.000018071834
 Sym=     1a
 Ene= -1.91823536081123E+01
 Spin= Alpha
 Occup= 2.000000
  1      -0.000034383588
  2       0.000215306068
  3      -0.000818568002
  4      -0.001003711877
  5       0.003593184767
  6       0.000347122405
  7      -0.000464629816
  8       0.000013256224
  9       0.004956331952
 10      -0.003451054778
 11       0.000065411856
 12      -0.000514090580
 13       0.003401832612
 14      -0.000127084974
 15       0.000239066753
 16      -0.000010628784
 17       0.000012316768
 18       0.000046003997
 19       0.000403422582
 20       0.000565037544
 21      -0.000106643018
 22       0.000028802812
 23       0.000754220541
 24       0.002781845310
 25      -0.000008868142
 26      -0.000181864108
 27       0.000156139259
 28      -0.000023286229
 29       0.000000577647
 30      -0.000213743127
 31      -0.000110967786
 32      -0.006142976974
 33      -0.008993183760
 34      -0.000500437838
 35      -0.000669561810
 36      -0.003288419077
 37       0.000036080980
 38      -0.000055481830
 39       0.000001665727
 40       0.000891056491
 41       0.000242876546
 42      -0.000022331275
 43       0.001129979239
 44      -0.001189890187
 45       0.000030823657
 46       0.000074460683
 47       0.000002408532
 48       0.000005196944
 49      -0.000002262285
 50      -0.000013437508
 51      -0.000154221548
 52      -0.000001053398
 53      -0.000020118989
 54      -0.000235465938
 55       0.000014238604
 56      -0.000003610289
 57       0.000076764651
 58       0.000009197572
 59      -0.000001950558
 60       0.000006378866
 61      -0.000045147630
 62      -0.000048400971
 63      -0.435346222427
 64      -0.639638737353
 65      -0.033977138351
 66       0.025063571679
 67      -0.010670546998
 68      -0.001574600110
 69       0.001143552207
 70      -0.000022323100
 71       0.003588904434
 72      -0.003076462541
 73       0.000069021410
 74      -0.001717179565
 75       0.000039058887
 76       0.000023451542
 77       0.000084847030
 78      -0.000009974691
 79       0.000002217443
 80       0.000027831352
 81       0.000285011700
 82      -0.000450762210
 83       0.000036441494
 84      -0.000016398988
 85      -0.000084918270
 86      -0.001190696097
 87      -0.000006284402
 88      -0.000082395047
 89       0.000098264485
 90      -0.000002981838
 91      -0.000007080832
 92       0.000101924392
 93       0.000087721600
 94      -0.000253139908
 95      -0.000546368682
 96       0.001344820280
 97       0.000072167875
 98      -0.000135544610
 99       0.000004379480
100       0.000010055515
101      -0.000028472501
102       0.000120669182
103      -0.000344580655
104       0.000883363753
105      -0.000372269790
106       0.000014822123
107       0.000030692464
108      -0.000001415714
109      -0.000055763523
110      -0.000049286616
111       0.000002714879
112      -0.000400880540
113      -0.000773970336
114       0.000036740612
115       0.000004226983
116       0.000321662018
117      -0.000012861271
118      -0.000016835054
119      -0.000001338751
120       0.000000147407
121       0.000036851564
122       0.000009588786
123      -0.000003232578
124      -0.000001246953
125      -0.000005554597
126      -0.000110026684
127       0.000069403383
128      -0.000391456534
129      -0.000017721184
130      -0.000029348237
131       0.000014998876
132       0.000192446374
133      -0.000003234948
134       0.000013776165
135       0.000028029870
136      -0.000001180991
137       0.000002415523
138      -0.000014526685
139       0.000010957565
 Sym=     1a
 Ene= -1.03169659361740E+01
 Spin= Alpha
 Occup= 2.000000
  1       0.467198287910
  2       0.608397735951
  3       0.033281565666
  4      -0.003050745477
  5       0.009064220940
  6       0.000444123530
  7       0.001285758331
  8      -0.000056390573
  9       0.001394838095
 10       0.004040870004
 11      -0.000178926851
 12      -0.000628946329
 13      -0.001811981958
 14       0.000080889355
 15      -0.002195677533
 16      -0.000037254292
 17      -0.000097904538
 18       0.001035831153
 19      -0.000819615026
 20      -0.003280320572
 21      -0.000050789938
 22      -0.000130804098
 23       0.001845158422
 24      -0.001459440975
 25       0.000046751291
 26      -0.000150022614
 27      -0.000433504818
 28      -0.000093703475
 29       0.000070684781
 30      -0.002415548483
 31      -0.001543937521
 32      -0.000060283198
 33      -0.000247443938
 34       0.002662229970
 35      -0.008391647893
 36      -0.001833858908
 37      -0.000627030743
 38      -0.000058856215
 39       0.000011286689
 40       0.006327570874
 41       0.000704842079
 42      -0.000118395858
 43       0.000245395656
 44       0.001126898003
 45      -0.000048316396
 46      -0.000018938053
 47      -0.000002915687
 48      -0.000000239290
 49       0.000043474090
 50       0.000045951209
 51       0.001442888468
 52       0.000101651026
 53       0.000009137439
 54      -0.002537988196
 55      -0.000743288548
 56       0.000016634893
 57      -0.000361311406
 58      -0.000041354931
 59      -0.000027521238
 60       0.000001217083
 61      -0.000596333980
 62      -0.000236891129
 63      -0.000060423305
 64      -0.000247557493
 65       0.002662757782
 66      -0.008400656032
 67      -0.001840488278
 68       0.000455497296
 69      -0.000434746723
 70       0.000010566541
 71      -0.004533466989
 72       0.004479239352
 73      -0.000111289772
 74       0.000504162373
 75       0.001037354784
 76      -0.000048636265
 77      -0.000019005334
 78       0.000002176639
 79      -0.000001955694
 80      -0.000034693895
 81      -0.000052807610
 82       0.001443712154
 83      -0.000070264925
 84       0.000066106952
 85       0.000135074221
 86       0.002642133991
 87       0.000015701837
 88       0.000257667512
 89      -0.000256288697
 90      -0.000007767329
 91       0.000025061071
 92      -0.000466091549
 93      -0.000440893071
 94      -0.000611567287
 95      -0.001122613282
 96      -0.003203571524
 97      -0.000646630552
 98      -0.001863584969
 99       0.000082916888
100      -0.000010371223
101       0.000030366017
102      -0.000135078776
103       0.000304042326
104      -0.000758188201
105      -0.000712406756
106      -0.000006513314
107      -0.000018958186
108       0.000000827053
109      -0.000004100484
110      -0.000011476177
111       0.000000586102
112       0.000268071576
113       0.000772917641
114      -0.000034741216
115       0.000188863572
116       0.000543404281
117      -0.000024234079
118      -0.000001069517
119       0.000000358471
120       0.000001083745
121       0.000022441828
122      -0.000017807177
123      -0.000009710430
124      -0.000001041595
125      -0.000003066134
126      -0.000045895098
127       0.000036451304
128       0.000305576206
129       0.000012107387
130       0.000034543391
131       0.000260488330
132      -0.000205523078
133       0.000001343471
134      -0.000004215746
135      -0.000012166065
136       0.000000798297
137      -0.000000641349
138       0.000002510929
139       0.000001621054
 Sym=     1a
 Ene= -3.78874083346598E+00
 Spin= Alpha
 Occup= 2.000000
  1       0.000009787816
  2       0.000017000934
  3      -0.000079921537
  4      -0.000589966110
  5       0.000075788887
  6       0.000014913874
  7       0.000042968365
  8      -0.000001923753
  9      -0.000161500024
 10      -0.000468454707
 11       0.000020683902
 12       0.000641953531
 13       0.001847034923
 14      -0.000082473490
 15       0.000031081650
 16       0.000000318529
 17       0.000000628710
 18      -0.000029321451
 19       0.000023055170
 20      -0.000212636469
 21      -0.000004839857
 22      -0.000013256933
 23       0.000031657020
 24      -0.000024972520
 25      -0.000004034900
 26       0.000012886640
 27       0.000037490257
 28      -0.000004391673
 29       0.000003525258
 30      -0.000047278601
 31      -0.000029801447
 32       0.000023758686
 33       0.000035366263
 34       0.000134864117
 35      -0.000722688927
 36       0.001252916880
 37       0.000020097293
 38      -0.000039513643
 39       0.000001251752
 40       0.000001156270
 41      -0.000163147183
 42       0.000006569412
 43      -0.000268435871
 44       0.000831869782
 45      -0.000029238331
 46       0.000010560697
 47       0.000000371379
 48       0.000000584452
 49      -0.000001654077
 50      -0.000001411110
 51      -0.000001439275
 52      -0.000002147996
 53       0.000002847803
 54       0.000081029810
 55       0.000021302093
 56      -0.000003474377
 57      -0.000004138036
 58       0.000037265078
 59      -0.000003668530
 60      -0.000001286340
 61       0.000026528709
 62      -0.000035821465
 63       0.000023680155
 64       0.000035213807
 65       0.000134719326
 66      -0.000721851671
 67       0.001253883783
 68      -0.000039963681
 69      -0.000018438201
 70       0.000001211916
 71      -0.000101639818
 72      -0.000127350228
 73       0.000006817197
 74       0.000726268391
 75       0.000484671483
 76      -0.000029937126
 77       0.000010530790
 78      -0.000000048347
 79       0.000000726252
 80       0.000001298780
 81       0.000002198594
 82      -0.000001740115
 83       0.000003577448
 84       0.000000920790
 85      -0.000002625782
 86      -0.000083744951
 87      -0.000003486381
 88       0.000026035636
 89       0.000026839516
 90       0.000000153007
 91       0.000003824430
 92      -0.000021193246
 93       0.000038553303
 94      -0.000067093132
 95      -0.000055215065
 96       0.001442681275
 97      -0.000022871458
 98      -0.000065904696
 99       0.000002888200
100      -0.195723908999
101       0.707335031262
102      -0.923273642302
103      -0.394188221491
104      -0.010361288417
105       0.002070337697
106      -0.002682816337
107      -0.007722847851
108       0.000347352564
109      -0.000762233775
110      -0.002193653430
111       0.000098693654
112       0.000786824058
113       0.002265137423
114      -0.000101381294
115       0.000036852010
116       0.000106401528
117      -0.000004777945
118      -0.000265422918
119      -0.000001217485
120       0.000000332603
121       0.000376051277
122      -0.000295881233
123      -0.000167398315
124      -0.000004226341
125      -0.000011603384
126      -0.000005967763
127       0.000004609010
128       0.000716485884
129       0.000029448545
130       0.000084007324
131       0.000678028336
132      -0.000535436930
133      -0.000003219916
134       0.000009219491
135       0.000021499975
136       0.000003464861
137      -0.000000971951
138       0.000096590687
139       0.000062024772
 Sym=     1a
 Ene= -2.37714779349862E+00
 Spin= Alpha
 Occup= 2.000000
  1       0.000000302162
  2       0.000000601063
  3       0.000000341564
  4      -0.000003749133
  5       0.000003708152
  6      -0.000000249115
  7      -0.000000730794
  8      -0.000005987265
  9       0.000000516775
 10       0.000000247185
 11       0.000011046034
 12       0.000004499827
 13       0.000013100447
 14       0.000180581543
 15      -0.000000202774
 16       0.000001601478
 17       0.000004802752
 18      -0.000000399579
 19       0.000000266615
 20      -0.000001495882
 21       0.000011401033
 22       0.000035519724
 23      -0.000000092191
 24      -0.000000331403
 25      -0.000032854422
 26      -0.000001811160
 27      -0.000004920600
 28      -0.000023402897
 29       0.000018034036
 30       0.000001336126
 31       0.000001337088
 32       0.000000442667
 33       0.000001055364
 34      -0.000001725588
 35       0.000000183347
 36      -0.000002594994
 37       0.000001249162
 38       0.000000936789
 39       0.000059267120
 40       0.000001783478
 41       0.000004963472
 42       0.000140873096
 43      -0.000001860746
 44      -0.000008130846
 45      -0.000200262970
 46      -0.000001038963
 47      -0.000001077392
 48       0.000014041908
 49      -0.000000604924
 50       0.000000186692
 51      -0.000006173511
 52      -0.000014713291
 53       0.000099836715
 54      -0.000003609188
 55       0.000000954515
 56      -0.000025176423
 57       0.000000718397
 58      -0.000004157762
 59      -0.000029596117
 60      -0.000012329157
 61       0.000000035908
 62       0.000001630207
 63       0.000000581692
 64       0.000001345214
 65      -0.000001861802
 66      -0.000000631410
 67      -0.000002888107
 68      -0.000000284462
 69       0.000001161728
 70       0.000059313689
 71       0.000000737922
 72       0.000003945999
 73       0.000139646116
 74      -0.000003630284
 75      -0.000007887478
 76      -0.000200488537
 77      -0.000001070362
 78       0.000009873634
 79       0.000010090848
 80      -0.000000006100
 81       0.000000651178
 82      -0.000005987454
 83       0.000072267963
 84       0.000069701603
 85      -0.000002315002
 86       0.000002767241
 87      -0.000025166728
 88      -0.000003572960
 89      -0.000002716870
 90       0.000006077728
 91       0.000031947140
 92       0.000001352918
 93      -0.000001200875
 94       0.000000006818
 95       0.000002929335
 96       0.000002738827
 97       0.000000035906
 98       0.000000069449
 99      -0.000011298904
100      -0.000003983467
101       0.000014340384
102      -0.000022743217
103      -0.000000964894
104       0.000000877801
105      -0.000002410463
106       0.013647397992
107       0.036271293426
108       0.876378869421
109       0.002438991714
110       0.006482531120
111       0.156667135335
112       0.000114463890
113       0.000306929029
114       0.007367135691
115      -0.000019367592
116      -0.000051858852
117      -0.001277239641
118      -0.000304614650
119       0.001340386107
120       0.003866336073
121      -0.000138274687
122       0.000113225029
123      -0.000144195489
124       0.000630501448
125       0.001822731479
126      -0.000066845801
127       0.000055353190
128       0.000010259824
129      -0.000041715941
130      -0.000123408391
131       0.000006556357
132      -0.000004527089
133       0.000259233936
134       0.000002627174
135       0.000008227838
136      -0.000194340902
137       0.000157894677
138       0.000012748994
139       0.000006224575
 Sym=     1a
 Ene= -2.37591965347711E+00
 Spin= Alpha
 Occup= 2.000000
  1       0.000156890171
  2       0.000312674875
  3       0.000154358675
  4      -0.001749958389
  5       0.000966977581
  6      -0.000095488278
  7      -0.000274860684
  8       0.000012212282
  9      -0.000083519489
 10      -0.000258759528
 11       0.000010779879
 12       0.000574991999
 13       0.001652885024
 14      -0.000074229852
 15       0.000071368423
 16       0.000000671634
 17       0.000001116796
 18      -0.000069076179
 19       0.000054311839
 20       0.000672127225
 21       0.000030374442
 22       0.000084086028
 23       0.000754484817
 24      -0.000594591126
 25      -0.000010457958
 26       0.000033937949
 27       0.000099698157
 28       0.000000376355
 29       0.000000656055
 30       0.000116065980
 31       0.000076045592
 32       0.000274313045
 33       0.000627322238
 34      -0.000809460132
 35      -0.000484587341
 36      -0.000850946293
 37       0.000212033940
 38      -0.000857447141
 39       0.000030778000
 40      -0.000093323998
 41      -0.000750343963
 42       0.000030812536
 43       0.000347055274
 44      -0.000113248820
 45      -0.000000198801
 46       0.000026933679
 47      -0.000001211635
 48       0.000002452230
 49       0.000044608077
 50       0.000033208880
 51       0.000190072374
 52      -0.000006216288
 53       0.000027438052
 54       0.000403396320
 55       0.000130840146
 56      -0.000005487049
 57      -0.000002483128
 58       0.000060123700
 59      -0.000004955395
 60      -0.000002731557
 61       0.000066523782
 62      -0.000053064490
 63       0.000273357357
 64       0.000625309594
 65      -0.000808703046
 66      -0.000475604323
 67      -0.000845055974
 68      -0.000694951005
 69      -0.000539551891
 70       0.000030794853
 71      -0.000388775796
 72      -0.000646892046
 73       0.000032071649
 74      -0.000340701834
 75       0.000121513028
 76       0.000000980560
 77       0.000026704151
 78       0.000001568908
 79       0.000001597558
 80      -0.000020446717
 81      -0.000049443820
 82       0.000188954268
 83       0.000023514402
 84       0.000017127275
 85      -0.000036472853
 86      -0.000423193383
 87      -0.000005350948
 88       0.000037355789
 89       0.000046642145
 90       0.000000027550
 91       0.000004721148
 92      -0.000019437219
 93       0.000079654422
 94       0.000020904594
 95       0.001305259512
 96       0.000641277084
 97       0.000077450101
 98       0.000223142513
 99      -0.000009906744
100      -0.002267003822
101       0.008246849679
102      -0.012878021382
103      -0.001252323216
104       0.001563250861
105      -0.001121600760
106       0.286724638000
107       0.828154233538
108      -0.038739304238
109       0.051194189880
110       0.147860891349
111      -0.006917765615
112       0.002388628669
113       0.006900472928
114      -0.000322559944
115      -0.000279000013
116      -0.000806127447
117       0.000038370727
118      -0.002366863873
119      -0.000117350816
120      -0.000333732744
121      -0.003129334628
122       0.002468593971
123      -0.001269998240
124      -0.000056427722
125      -0.000161243215
126      -0.001367292192
127       0.001076124611
128       0.000212114125
129       0.000010636483
130       0.000029486545
131       0.000291044085
132      -0.000228546638
133      -0.000019419634
134       0.000055527671
135       0.000151109418
136       0.000007083633
137      -0.000001759664
138       0.000302061288
139       0.000196037437
 Sym=     1a
 Ene= -2.37370656974873E+00
 Spin= Alpha
 Occup= 2.000000
  1      -0.000000160009
  2      -0.000000154525
  3      -0.000000626421
  4       0.000000922052
  5      -0.000000025330
  6      -0.000109299230
  7       0.000038032831
  8       0.000000065842
  9       0.000107808346
 10      -0.000038659686
 11       0.000000378624
 12       0.000163280611
 13      -0.000055578304
 14      -0.000000087769
 15       0.000000203634
 16      -0.000000281729
 17       0.000000150681
 18       0.000003638315
 19       0.000004367407
 20      -0.000000845879
 21       0.000004682496
 22      -0.000001646245
 23      -0.000084817757
 24      -0.000104294260
 25      -0.000000123438
 26      -0.000002098522
 27       0.000000743741
 28      -0.000002211676
 29      -0.000003209135
 30       0.000038579081
 31      -0.000059178660
 32       0.000136347183
 33       0.000305499736
 34      -0.000310338529
 35      -0.000473237738
 36      -0.000174234202
 37       0.000002678597
 38      -0.000398397544
 39       0.000015771584
 40      -0.000032970742
 41      -0.000645415184
 42       0.000026297550
 43       0.000299885447
 44       0.000358090260
 45      -0.000018339076
 46       0.000001114315
 47       0.000000367701
 48       0.000000722292
 49       0.000020004394
 50      -0.000012732244
 51       0.000187939140
 52      -0.000001183926
 53       0.000021406322
 54       0.000228599205
 55       0.000060742803
 56      -0.000003769602
 57      -0.000003819862
 58       0.000039616309
 59      -0.000004171323
 60       0.000000602060
 61      -0.000005427723
 62      -0.000033121914
 63      -0.000136553526
 64      -0.000306085837
 65       0.000311332555
 66       0.000474801429
 67       0.000173539996
 68       0.000249373642
 69       0.000311823312
 70      -0.000015899518
 71       0.000375627586
 72       0.000525476328
 73      -0.000026514046
 74       0.000013019734
 75      -0.000467692405
 76       0.000017566731
 77      -0.000001551908
 78       0.000000216726
 79      -0.000001255694
 80      -0.000018277798
 81       0.000015976437
 82      -0.000187840224
 83      -0.000015011430
 84      -0.000015589633
 85       0.000007631843
 86       0.000236440681
 87       0.000003938906
 88      -0.000027164360
 89      -0.000029794347
 90       0.000002630626
 91      -0.000004004397
 92       0.000033379206
 93      -0.000007583472
 94       0.000000047441
 95      -0.000002379189
 96       0.000001462488
 97      -0.000053350158
 98       0.000018168936
 99       0.000000030020
100       0.000002154838
101      -0.000008257701
102       0.000013568210
103       0.000000397224
104      -0.000000297854
105       0.000000011903
106      -0.829302283351
107       0.287172425870
108       0.001028214875
109      -0.147792401332
110       0.051176400011
111       0.000183553324
112      -0.006850899880
113       0.002372568175
114       0.000009108585
115       0.001072085234
116      -0.000371062149
117      -0.000001527132
118       0.000004282969
119       0.000162720495
120      -0.000049664001
121      -0.002507167582
122      -0.003178963367
123       0.000003169514
124       0.000098957920
125      -0.000031277767
126      -0.001475072848
127      -0.001866546808
128      -0.000001686360
129      -0.000015261100
130       0.000004507485
131       0.000209169036
132       0.000262314055
133       0.000002382149
134      -0.000301960830
135       0.000101425795
136      -0.000005409726
137      -0.000007005228
138      -0.000135895658
139       0.000211994078
 Sym=     1a
 Ene= -1.08882506802796E+00
 Spin= Alpha
 Occup= 2.000000
  1      -0.064938231048
  2      -0.136863564956
  3       0.216885755400
  4       0.153076807788
  5       0.001843565647
  6       0.025445700724
  7       0.073756904718
  8      -0.003263247580
  9       0.009592252183
 10       0.028709622455
 11      -0.001225344031
 12      -0.002960697811
 13      -0.008300560111
 14       0.000342255467