
                                 *****************
                                 * O   R   C   A *
                                 *****************

           --- An Ab Initio, DFT and Semiempirical electronic structure package ---

                  #######################################################
                  #                        -***-                        #
                  #          Department of theory and spectroscopy      #
                  #               Directorship: Frank Neese             #
                  #        Max Planck Institute fuer Kohlenforschung    #
                  #                Kaiser Wilhelm Platz 1               #
                  #                 D-45470 Muelheim/Ruhr               #
                  #                      Germany                        #
                  #                                                     #
                  #                  All rights reserved                #
                  #                        -***-                        #
                  #######################################################


                         Program Version 4.2.1 -  RELEASE  -


 With contributions from (in alphabetic order):
   Daniel Aravena         : Magnetic Suceptibility
   Michael Atanasov       : Ab Initio Ligand Field Theory (pilot matlab implementation)
   Alexander A. Auer      : GIAO ZORA, VPT2
   Ute Becker             : Parallelization
   Giovanni Bistoni       : ED, misc. LED, open-shell LED, HFLD
   Martin Brehm           : Molecular dynamics
   Dmytro Bykov           : SCF Hessian
   Vijay G. Chilkuri      : MRCI spin determinant printing, contributions to CSF-ICE
   Dipayan Datta          : RHF DLPNO-CCSD density
   Achintya Kumar Dutta   : EOM-CC, STEOM-CC
   Dmitry Ganyushin       : Spin-Orbit,Spin-Spin,Magnetic field MRCI
   Miquel Garcia          : C-PCM Hessian, Gaussian charge scheme
   Yang Guo               : DLPNO-NEVPT2, CIM, IAO-localization
   Andreas Hansen         : Spin unrestricted coupled pair/coupled cluster methods
   Benjamin Helmich-Paris : CASSCF linear response (MC-RPA)
   Lee Huntington         : MR-EOM, pCC
   Robert Izsak           : Overlap fitted RIJCOSX, COSX-SCS-MP3, EOM
   Christian Kollmar      : KDIIS, OOCD, Brueckner-CCSD(T), CCSD density
   Simone Kossmann        : Meta GGA functionals, TD-DFT gradient, OOMP2, MP2 Hessian
   Martin Krupicka        : AUTO-CI
   Lucas Lang             : DCDCAS
   Dagmar Lenk            : GEPOL surface, SMD
   Dimitrios Liakos       : Extrapolation schemes; Compound Job, initial MDCI parallelization
   Dimitrios Manganas     : Further ROCIS development; embedding schemes
   Dimitrios Pantazis     : SARC Basis sets
   Taras Petrenko         : DFT Hessian,TD-DFT gradient, ASA, ECA, R-Raman, ABS, FL, XAS/XES, NRVS
   Peter Pinski           : DLPNO-MP2, DLPNO-MP2 Gradient
   Christoph Reimann      : Effective Core Potentials
   Marius Retegan         : Local ZFS, SOC
   Christoph Riplinger    : Optimizer, TS searches, QM/MM, DLPNO-CCSD(T), (RO)-DLPNO pert. Triples
   Tobias Risthaus        : Range-separated hybrids, TD-DFT gradient, RPA, STAB
   Michael Roemelt        : Original ROCIS implementation
   Masaaki Saitow         : Open-shell DLPNO-CCSD energy and density
   Barbara Sandhoefer     : DKH picture change effects
   Avijit Sen             : IP-ROCIS
   Kantharuban Sivalingam : CASSCF convergence, NEVPT2, FIC-MRCI
   Bernardo de Souza      : ESD, SOC TD-DFT
   Georgi Stoychev        : AutoAux, RI-MP2 NMR
   Willem Van den Heuvel  : Paramagnetic NMR
   Boris Wezisla          : Elementary symmetry handling
   Frank Wennmohs         : Technical directorship


 We gratefully acknowledge several colleagues who have allowed us to
 interface, adapt or use parts of their codes:
   Stefan Grimme, W. Hujo, H. Kruse,             : VdW corrections, initial TS optimization,
                  C. Bannwarth                     DFT functionals, gCP, sTDA/sTD-DF
   Ed Valeev, F. Pavosevic, A. Kumar             : LibInt (2-el integral package), F12 methods
   Garnet Chan, S. Sharma, J. Yang, R. Olivares  : DMRG
   Ulf Ekstrom                                   : XCFun DFT Library
   Mihaly Kallay                                 : mrcc  (arbitrary order and MRCC methods)
   Andreas Klamt, Michael Diedenhofen            : otool_cosmo (COSMO solvation model)
   Jiri Pittner, Ondrej Demel                    : Mk-CCSD
   Frank Weinhold                                : gennbo (NPA and NBO analysis)
   Christopher J. Cramer and Donald G. Truhlar   : smd solvation model
   Lars Goerigk                                  : TD-DFT with DH, B97 family of functionals
   V. Asgeirsson, H. Jonsson                     : NEB implementation
   FAccTs GmbH                                   : IRC, NEB, NEB-TS, Multilevel, MM, QM/MM, CI optimization
   S Lehtola, MJT Oliveira, MAL Marques          : LibXC Library


 Your calculation uses the libint2 library for the computation of 2-el integrals
 For citations please refer to: http://libint.valeyev.net

 Your ORCA version has been built with support for libXC version: 4.2.3
 For citations please refer to: https://tddft.org/programs/libxc/

 This ORCA versions uses:
   CBLAS   interface :  Fast vector & matrix operations
   LAPACKE interface :  Fast linear algebra routines
   SCALAPACK package :  Parallel linear algebra routines




***************************************
The coordinates will be read from file: cooh.xyz
***************************************


Ligands detected. Parsing files...
Ligand 1: Ag.xyz is a xyz file. Parsing xyz file.

FFFilename cooh.ORCAFF.prms contains only data for the protein part without ligands.
Moving FFFilename to FFFilename_Prot.
TEST MSG 
Method for extending active region .... Distance criterion.
----- Orbital basis set information -----
Your calculation utilizes the basis: def2-TZVP
   F. Weigend and R. Ahlrichs, Phys. Chem. Chem. Phys. 7, 3297 (2005).

cite the ECPs for Ag [Def2-ECP] as follows:
Ce-Yb(ecp-28): M. Dolg, H. Stoll, H.Preuss, J. Chem. Phys., 1989, 90, 1730-1734.
Y-Cd(ecp-28), Hf-Hg(ecp-46): D. Andrae,U. Haeussermann, M. Dolg, H. Stoll, H. Preuss, Theor. Chim. Acta, 1990, 77, 123-141.
In-Sb(ecp-28), Tl-Bi(ecp-46): B. Metz, H. Stoll, M. Dolg, J. Chem. Phys., 2000, 113, 2563-2569.
Te-Xe(ecp-28), Po-Rn(ecp-46): K. A. Peterson, D. Figgen, E. Goll, H. Stoll, M. Dolg, J. Chem. Phys., 2003, 119, 11113-11123.
Rb(ecp-28), Cs(ecp-46): T. Leininger, A. Nicklass, W. Kuechle, H. Stoll, M. Dolg, A. Bergner, Chem. Phys. Lett., 1996, 255, 274-280.
Sr(ecp-28), Ba(ecp-46): M. Kaupp, P. V. Schleyer, H. Stoll and H. Preuss, J. Chem. Phys., 1991, 94, 1360-1366.
La(ecp-46): M. Dolg, H. Stoll, A. Savin, H. Preuss, Theor. Chim. Acta, 1989, 75, 173-194.
Lu(ecp-28): X. Cao, M. Dolg, J. Chem. Phys., 2001, 115, 7348-7355.

ECP parameters for Ag [Def2-ECP] have been obtained from:
TURBOMOLE (7.0.2)

================================================================================
                                        WARNINGS
                       Please study these warnings very carefully!
================================================================================


WARNING: Geometry Optimization
  ===> : Switching off AutoStart
         For restart on a previous wavefunction, please use MOREAD

INFO   : the flag for use of LIBINT has been found!

================================================================================
                                       INPUT FILE
================================================================================
NAME = HCOO-Ag+.inp
|  1> #QMMM simulation HCOO- Ag+ (4d10) no water
|  2> ! QMMM opt PBE0 def2-TZVP veryslowconv
|  3> %qmmm
|  4>     ORCAFFFilename "cooh.ORCAFF.prms"
|  5>     QMAtoms {0:4} end
|  6>     PrintLevel  4 
|  7>     PrintPDB true 
|  8>     Ligands
|  9>         "Ag.xyz" ORCAFF "Ag.ORCAFF.prms" end
| 10>     end
| 11> end 
| 12> %scf
| 13>     Maxiter 500009
| 14> end
| 15> %geom
| 16>     constraints
| 17>     {B 0 1 C}
| 18>     {B 0 2 C}
| 19>     {B 0 3 C}
| 20>     {B 1 2 C}
| 21>     {B 2 3 C}
| 22> end
| 23> end
| 24> %output
| 25>     PrintLevel Normal 
| 26>     Print [P_Basis] 2 
| 27>     Print [P_MOs] 1  
| 28> end
| 29> *xyzfile 0 1 cooh.xyz
| 30> 
| 31> 
| 32>                          ****END OF INPUT****
================================================================================

------------------------------------------------------------------------------

                             *******************
                             *        QMMM     *
                             *******************


------------------------------------------------------------------------------




PrintLevel                             ... 4
Coupling Scheme                        ... additive
Embedding Scheme                       ... electrostatic
Charge alteration scheme               ... Charge shifting
Scaling factor for CS scheme           ... 0.06
Gradient projection scheme             ... Lever rule
Point charges in QM calc. from MM atoms... 0
              from charge shift scheme ... 0
Skip double counting of LA terms       ... YES
Skip double counting of LA terms (bond)... YES
Gradient projection for link atoms     ...
Printing trajectories, xyz and allxyz files:
        QMMMRegion                     ... YES
        optRegion                      ... YES
        optRegionExt                   ... YES
        qmRegion                       ... YES
Parameter files:
        ORCA Forcefield Filename       ... HCOO-Ag+_mergeFF.ORCAFF.prms
        QM-LA bond distances Filename  ... HCOO-Ag+.H_DIST.prms
Size of different systems (in atoms):
Size of QMMM System                    ... 5
Size of MM Subsystem                   ... 0
Size of QM Subsystem                   ... 5
Number of link atoms                   ... 0
Size of QM Subsystem plus link atoms   ... 5
Size of region for optimizer           ... 5
        optimized atoms = optRegion    ... 5
        fixed atoms (distance cutoff)  ... 0 ( 1.0)
Composition of different systems (atoms start counting at 1):
QM Subsystem                           ...   0   1   2   3   4 
Optimized atoms                        ...   0   1   2   3   4 
Fixed atoms used in optimizer          ... 
Constrain bonds and angle of MM waters ... NO

                       *****************************
                       * Geometry Optimization Run *
                       *****************************

Geometry optimization settings:
Update method            Update   .... BFGS
Choice of coordinates    CoordSys .... Z-matrix Internals
Initial Hessian          InHess   .... Almoef's Model

Convergence Tolerances:
Energy Change            TolE     ....  5.0000e-06 Eh
Max. Gradient            TolMAXG  ....  3.0000e-04 Eh/bohr
RMS Gradient             TolRMSG  ....  1.0000e-04 Eh/bohr
Max. Displacement        TolMAXD  ....  4.0000e-03 bohr
RMS Displacement         TolRMSD  ....  2.0000e-03 bohr
Strict Convergence                ....  False
------------------------------------------------------------------------------
                        ORCA OPTIMIZATION COORDINATE SETUP
------------------------------------------------------------------------------

The optimization will be done in new redundant internal coordinates
Making redundant internal coordinates   ...  (new redundants) done
Evaluating the initial hessian          ...  (Almloef) done
Evaluating the coordinates              ...  done
Calculating the B-matrix                .... done
Calculating the G-matrix                .... done
Diagonalizing the G-matrix              .... done
Imposing constraints:
 Iter   0:  RMS(Cart)=    0.0000000000 RMS(Int)=    0.0000000000
CONVERGED
The first mode is                       ....   21
The number of degrees of freedom        ....    9
Storing new coordinates                 .... done

    -----------------------------------------------------------------
                    Redundant Internal Coordinates


    -----------------------------------------------------------------
         Definition                    Initial Value    Approx d2E/dq
    -----------------------------------------------------------------
      1. B(O   1,C   0)                  1.2442         0.956009 C 
      2. B(O   2,O   1)                  2.2614         0.020403 C 
      3. B(O   2,C   0)                  1.2440         0.956789 C 
      4. B(H   3,C   0)                  1.0345         0.441592 C 
      5. B(H   3,O   2)                  1.8592         0.019116 C 
      6. B(Ag  4,C   0)                  3.8767         0.000681   
      7. B(Ag  4,H   3)                  4.6024         0.000009   
      8. B(Ag  4,O   1)                  3.9553         0.000457   
      9. B(Ag  4,O   2)                  3.7934         0.000829   
     10. A(O   1,C   0,O   2)          130.6962         0.501991   
     11. A(O   1,C   0,Ag  4)           84.4507         0.182265   
     12. A(H   3,C   0,Ag  4)          129.3237         0.157288   
     13. A(O   1,C   0,H   3)          117.9542         0.391333   
     14. A(O   2,C   0,H   3)          109.0219         0.391389   
     15. A(O   2,C   0,Ag  4)           76.8965         0.182282   
     16. A(C   0,O   1,Ag  4)           77.3033         0.173719   
     17. A(C   0,O   2,Ag  4)           84.4769         0.185943   
     18. A(C   0,Ag  4,O   1)           18.2460         0.108136   
     19. A(C   0,Ag  4,O   2)           18.6266         0.110893   
     20. A(O   1,Ag  4,O   2)           33.8552         0.108887   
     21. D(Ag  4,O   1,C   0,O   2)     67.4192         0.089162   
     22. D(Ag  4,O   1,C   0,H   3)   -132.0072         0.089162   
     23. D(Ag  4,O   2,C   0,O   1)    -70.6618         0.096276   
     24. D(Ag  4,O   2,C   0,H   3)    127.4431         0.096276   
     25. D(O   2,Ag  4,C   0,O   1)    134.0469         0.001500   
     26. D(O   1,Ag  4,C   0,O   2)   -134.0469         0.001500   
     27. D(O   1,Ag  4,C   0,H   3)    121.9538         0.001500   
     28. D(O   1,Ag  4,O   2,C   0)     23.8261         0.001500   
     29. D(O   2,Ag  4,C   0,H   3)   -103.9993         0.001500   
     30. D(O   2,Ag  4,O   1,C   0)    -24.3363         0.001500   
    -----------------------------------------------------------------

Number of atoms                         .... 5
Number of degrees of freedom            .... 30

         *************************************************************
         *                GEOMETRY OPTIMIZATION CYCLE   1            *
         *************************************************************
                    ************************************                      
                    *          QM/MM SP Energy         *                      
                    ************************************                      


------------------------------------------------------------------------------
                                     QM                                       
------------------------------------------------------------------------------
Starting the QM part
---------------------------------
CARTESIAN COORDINATES (ANGSTROEM)
---------------------------------
  C     -3.119232   -0.543736   -0.300619
  O     -1.899483   -0.787569   -0.271696
  O     -3.743987    0.411334   -0.795639
  H     -3.774447   -1.327779   -0.139081
  Ag    -2.201394    2.411669    2.034355

----------------------------
CARTESIAN COORDINATES (A.U.)
----------------------------
  NO LB      ZA    FRAG     MASS         X           Y           Z
   0 C     6.0000    0    12.011   -5.894494   -1.027513   -0.568088
   1 O     8.0000    0    15.999   -3.589503   -1.488290   -0.513431
   2 O     8.0000    0    15.999   -7.075111    0.777309   -1.503541
   3 H     1.0000    0     1.008   -7.132672   -2.509138   -0.262824
   4 Ag   19.0000*   0   107.870   -4.160031    4.557394    3.844373
* core charge reduced due to ECP

--------------------------------
INTERNAL COORDINATES (ANGSTROEM)
--------------------------------
 C      0   0   0     0.000000000000     0.00000000     0.00000000
 O      1   0   0     1.244217578479     0.00000000     0.00000000
 O      1   2   0     1.243995460133   130.69615872     0.00000000
 H      1   2   3     1.034468110487   117.95424806   160.57360083
 Ag     3   1   2     3.793388931830    84.47688998   289.33818171

---------------------------
INTERNAL COORDINATES (A.U.)
---------------------------
 C      0   0   0     0.000000000000     0.00000000     0.00000000
 O      1   0   0     2.351230474336     0.00000000     0.00000000
 O      1   2   0     2.350810731493   130.69615872     0.00000000
 H      1   2   3     1.954861423096   117.95424806   160.57360083
 Ag     3   1   2     7.168466200606    84.47688998   289.33818171

---------------------
BASIS SET INFORMATION
---------------------
There are 4 groups of distinct atoms

 Group   1 Type C   : 11s6p2d1f contracted to 5s3p2d1f pattern {62111/411/11/1}
 Group   2 Type O   : 11s6p2d1f contracted to 5s3p2d1f pattern {62111/411/11/1}
 Group   3 Type H   : 5s1p contracted to 3s1p pattern {311/1}
 Group   4 Type Ag  : 7s7p6d1f contracted to 6s4p3d1f pattern {211111/4111/411/1}

Atom   0C    basis set group =>   1
Atom   1O    basis set group =>   2
Atom   2O    basis set group =>   2
Atom   3H    basis set group =>   3
Atom   4Ag   basis set group =>   4

-------------------------
BASIS SET IN INPUT FORMAT
-------------------------

 # Basis set for element : H 
 NewGTO H 
 S 3 
   1      34.0613410000      0.0254393072
   2       5.1235746000      0.1900859489
   3       1.1646626000      0.8524411301
 S 1 
   1       0.3272304100      1.0000000000
 S 1 
   1       0.1030724100      1.0000000000
 P 1 
   1       0.8000000000      1.0000000000
  end;

 # Basis set for element : C 
 NewGTO C 
 S 6 
   1   13575.3496820000      0.0006064549
   2    2035.2333680000      0.0046979088
   3     463.2256235900      0.0243324776
   4     131.2001959800      0.0973999683
   5      42.8530158910      0.3019558425
   6      15.5841857660      0.6623360915
 S 2 
   1       6.2067138508      0.6559530854
   2       2.5764896527      0.3758563329
 S 1 
   1       0.5769633942      1.0000000000
 S 1 
   1       0.2297283136      1.0000000000
 S 1 
   1       0.0951644400      1.0000000000
 P 4 
   1      34.6972322440      0.0113272200
   2       7.9582622826      0.0761696592
   3       2.3780826883      0.3019225220
   4       0.8143320818      0.7278502735
 P 1 
   1       0.2888754725      1.0000000000
 P 1 
   1       0.1005682367      1.0000000000
 D 1 
   1       1.0970000000      1.0000000000
 D 1 
   1       0.3180000000      1.0000000000
 F 1 
   1       0.7610000000      1.0000000000
  end;

 # Basis set for element : O 
 NewGTO O 
 S 6 
   1   27032.3826310000      0.0005722733
   2    4052.3871392000      0.0044353233
   3     922.3272271000      0.0230201076
   4     261.2407098900      0.0928224906
   5      85.3546413510      0.2937850002
   6      31.0350352450      0.6740160450
 S 2 
   1      12.2608607280      0.6383993702
   2       4.9987076005      0.3953458713
 S 1 
   1       1.1703108158      1.0000000000
 S 1 
   1       0.4647474099      1.0000000000
 S 1 
   1       0.1850453636      1.0000000000
 P 4 
   1      63.2749548010      0.0120183321
   2      14.6270493790      0.0830054217
   3       4.4501223456      0.3199174393
   4       1.5275799647      0.7071554292
 P 1 
   1       0.5293511794      1.0000000000
 P 1 
   1       0.1747842127      1.0000000000
 D 1 
   1       2.3140000000      1.0000000000
 D 1 
   1       0.6450000000      1.0000000000
 F 1 
   1       1.4280000000      1.0000000000
  end;

 # Basis set for element : Ag
 NewGTO Ag
 S 2 
   1      19.0000000000     -0.8594685537
   2      15.4281999330      1.8465563920
 S 1 
   1       6.0553507268      1.0000000000
 S 1 
   1       1.4162368935      1.0000000000
 S 1 
   1       0.6175863586      1.0000000000
 S 1 
   1       0.1047419743      1.0000000000
 S 1 
   1       0.0376851063      1.0000000000
 P 4 
   1      13.1881801800      0.0769824523
   2       7.7952789138     -0.2845084432
   3       2.0351571912      0.5653800140
   4       0.9809391484      0.5721355592
 P 1 
   1       0.4445117996      1.0000000000
 P 1 
   1       0.1300000000      1.0000000000
 P 1 
   1       0.0412000000      1.0000000000
 D 4 
   1      25.7843973510      0.0057358549
   2      11.3966367550     -0.0208937342
   3       2.7345581361      0.3879491828
   4       1.1873583605      0.6824815392
 D 1 
   1       0.4731691057      1.0000000000
 D 1 
   1       0.1674601799      1.0000000000
 F 1 
   1       1.3971100000      1.0000000000
  end;

-------------------------
ECP PARAMETER INFORMATION
-------------------------

 Group 1, Type Ag ECP Def2-ECP (replacing 28 core electrons, lmax=3)

Atom   4Ag   ECP group =>   1


-------------------------
ECP BASIS IN INPUT FORMAT
-------------------------

 #ECP Def2-ECP
 NewECP Ag
   N_core 28
   lmax f
   s 4
     1      13.1300000000    255.1393645000  2
     2       6.5100000000     36.8661215000  2
     3      14.2200000000     33.6899201000  2
     4       7.1100000000      5.5311202000  2
   p 4
     1      11.7400000000    182.1818687000  2
     2       6.2000000000     30.3577515000  2
     3      14.2200000000     33.6899201000  2
     4       7.1100000000      5.5311202000  2
   d 4
     1      10.2100000000     73.7192609000  2
     2       4.3800000000     12.5021171000  2
     3      14.2200000000     33.6899201000  2
     4       7.1100000000      5.5311202000  2
   f 2
     1      14.2200000000    -33.6899201000  2
     2       7.1100000000     -5.5311202000  2
 End


------------------------------------------------------------------------------
                           ORCA GTO INTEGRAL CALCULATION
------------------------------------------------------------------------------

                         BASIS SET STATISTICS AND STARTUP INFO

 # of primitive gaussian shells          ...   87
 # of primitive gaussian functions       ...  211
 # of contracted shells                  ...   51
 # of contracted basis functions         ...  139
 Highest angular momentum                ...    3
 Maximum contraction depth               ...    6
 Integral package used                   ... LIBINT
 Integral threshhold            Thresh   ...  2.500e-11
 Primitive cut-off              TCut     ...  2.500e-12


------------------------------ INTEGRAL EVALUATION ----------------------------


 * One electron integrals 

   ECP integrals                         ... done
 Pre-screening matrix                    ... done
 Shell pair data                         ... done (   0.000 sec)

-------------------------------------------------------------------------------
                                 ORCA SCF
-------------------------------------------------------------------------------

------------
SCF SETTINGS
------------
Hamiltonian:
 Density Functional     Method          .... DFT(GTOs)
 Exchange Functional    Exchange        .... PBE
   PBE kappa parameter   XKappa         ....  0.804000
   PBE mue parameter    XMuePBE         ....  0.219520
 Correlation Functional Correlation     .... PBE
   PBE beta parameter  CBetaPBE         ....  0.066725
 LDA part of GGA corr.  LDAOpt          .... PW91-LDA
 Gradients option       PostSCFGGA      .... off
 Hybrid DFT is turned on
   Fraction HF Exchange ScalHFX         ....  0.250000
   Scaling of DF-GGA-X  ScalDFX         ....  0.750000
   Scaling of DF-GGA-C  ScalDFC         ....  1.000000
   Scaling of DF-LDA-C  ScalLDAC        ....  1.000000
   Perturbative correction              ....  0.000000
   Density functional embedding theory  .... OFF
   NL short-range parameter             ....  6.900000


General Settings:
 Integral files         IntName         .... HCOO-Ag+
 Hartree-Fock type      HFTyp           .... RHF
 Total Charge           Charge          ....    0
 Multiplicity           Mult            ....    1
 Number of Electrons    NEL             ....   42
 Basis Dimension        Dim             ....  139
 Nuclear Repulsion      ENuc            ....    122.6062033610 Eh

Convergence Acceleration:
 DIIS                   CNVDIIS         .... on
   Start iteration      DIISMaxIt       ....     0
   Startup error        DIISStart       ....  0.200000
   # of expansion vecs  DIISMaxEq       ....     5
   Bias factor          DIISBfac        ....   1.050
   Max. coefficient     DIISMaxC        ....  10.000
 Newton-Raphson         CNVNR           .... off
 SOSCF                  CNVSOSCF        .... off
 Level Shifting         CNVShift        .... on
   Level shift para.    LevelShift      ....    0.2500
   Turn off err/grad.   ShiftErr        ....    0.0000
 Zerner damping         CNVZerner       .... off
 Static damping         CNVDamp         .... on
   Fraction old density DampFac         ....    0.9200
   Max. Damping (<1)    DampMax         ....    0.9800
   Min. Damping (>=0)   DampMin         ....    0.0000
   Turn off err/grad.   DampErr         ....    0.0030
 Fernandez-Rico         CNVRico         .... off

SCF Procedure:
 Maximum # iterations   MaxIter         .... 500009
 SCF integral mode      SCFMode         .... Direct
   Integral package                     .... LIBINT
 Reset frequency        DirectResetFreq ....    20
 Integral Threshold     Thresh          ....  2.500e-11 Eh
 Primitive CutOff       TCut            ....  2.500e-12 Eh

Convergence Tolerance:
 Convergence Check Mode ConvCheckMode   .... Total+1el-Energy
 Convergence forced     ConvForced      .... 0
 Energy Change          TolE            ....  1.000e-08 Eh
 1-El. energy change                    ....  1.000e-05 Eh
 DIIS Error             TolErr          ....  5.000e-07


Diagonalization of the overlap matrix:
Smallest eigenvalue                        ... 1.181e-03
Time for diagonalization                   ...    0.002 sec
Threshold for overlap eigenvalues          ... 1.000e-08
Number of eigenvalues below threshold      ... 0
Time for construction of square roots      ...    0.001 sec
Total time needed                          ...    0.003 sec

-------------------
DFT GRID GENERATION
-------------------

General Integration Accuracy     IntAcc      ...  4.340
Radial Grid Type                 RadialGrid  ... Gauss-Chebyshev
Angular Grid (max. acc.)         AngularGrid ... Lebedev-110
Angular grid pruning method      GridPruning ... 3 (G Style)
Weight generation scheme         WeightScheme... Becke
Basis function cutoff            BFCut       ...    1.0000e-11
Integration weight cutoff        WCut        ...    1.0000e-14
Grids for H and He will be reduced by one unit

# of grid points (after initial pruning)     ...   9140 (   0.0 sec)
# of grid points (after weights+screening)   ...   9026 (   0.0 sec)
nearest neighbour list constructed           ...    0.0 sec
Grid point re-assignment to atoms done       ...    0.0 sec
Grid point division into batches done        ...    0.0 sec
Reduced shell lists constructed in    0.0 sec

Total number of grid points                  ...     9026
Total number of batches                      ...      144
Average number of points per batch           ...       62
Average number of grid points per atom       ...     1805
Average number of shells per batch           ...    33.52 (65.72%)
Average number of basis functions per batch  ...    92.80 (66.76%)
Average number of large shells per batch     ...    27.77 (82.84%)
Average number of large basis fcns per batch ...    75.78 (81.66%)
Maximum spatial batch extension              ...  34.29, 32.44, 43.67 au
Average spatial batch extension              ...   6.21,  5.44,  6.25 au

Time for grid setup =    0.044 sec

------------------------------
INITIAL GUESS: MODEL POTENTIAL
------------------------------
Loading Hartree-Fock densities                     ... done
  calling /home/ubuntu/orca/orca_4_2_1_linux_x86-64_openmpi314/orca HCOO-Ag+_atom47.inp > HCOO-Ag+_atom47.out in order to generate an atomic fitting density for atom 4 (Ag with ECP) on-the-fly... 
    atom 4 (Ag), assumed electronic state with S=2: 1s2 2s2 2p6 3s2 3p6 4s2 3d10 4p6 5s2 4d9           ... done
Calculating cut-offs                               ... done
Setting up the integral package                    ... done
Initializing the effective Hamiltonian             ... done
Starting the Coulomb interaction                   ... done (   0.0 sec)
Reading the grid                                   ... done
Mapping shells                                     ... done
Starting the XC term evaluation                    ... done (   0.1 sec)
  promolecular density results
     # of electrons  =     70.002172386
     EX              =   -165.067087439
     EC              =     -3.241925399
     EX+EC           =   -168.309012838
Transforming the Hamiltonian                       ... done (   0.0 sec)
Diagonalizing the Hamiltonian                      ... done (   0.0 sec)
Back transforming the eigenvectors                 ... done (   0.0 sec)
Now organizing SCF variables                       ... done
                      ------------------
                      INITIAL GUESS DONE (   1.2 sec)
                      ------------------
--------------
SCF ITERATIONS
--------------
               ***  Starting incremental Fock matrix formation  ***

                         ----------------------------
                         !        ITERATION     0   !
                         ----------------------------
   Total Energy        :    -335.625672740034 Eh
   Energy Change       :    -335.625672740034 Eh
   MAX-DP              :       0.018675140215
   RMS-DP              :       0.000731507654
   Actual Damping      :       0.9200
   Actual Level Shift  :       0.2500 Eh
   Int. Num. El.       :    42.00098051 (UP=   21.00049026 DN=   21.00049026)
   Exchange            :   -27.31487382
   Correlation         :    -1.61562059


                         ----------------------------
                         !        ITERATION     1   !
                         ----------------------------
   Total Energy        :    -335.675101400167 Eh
   Energy Change       :      -0.049428660133 Eh
   MAX-DP              :       0.061194518669
   RMS-DP              :       0.001006401158
   Actual Damping      :       0.9200
   Actual Level Shift  :       0.2500 Eh
   Int. Num. El.       :    42.00106685 (UP=   21.00053342 DN=   21.00053342)
   Exchange            :   -27.19420335
   Correlation         :    -1.61149014

                               ***Turning on DIIS***

                         ----------------------------
                         !        ITERATION     2   !
                         ----------------------------
   Total Energy        :    -335.723006598802 Eh
   Energy Change       :      -0.047905198636 Eh
   MAX-DP              :       0.079395130610
   RMS-DP              :       0.001032246807
   Actual Damping      :       0.9200
   Actual Level Shift  :       0.2500 Eh
   Int. Num. El.       :    42.00114414 (UP=   21.00057207 DN=   21.00057207)
   Exchange            :   -27.05479982
   Correlation         :    -1.60559888
   DIIS-Error          :       0.427598223261


                         ----------------------------
                         !        ITERATION     3   !
                         ----------------------------
   Total Energy        :    -335.758506075203 Eh
   Energy Change       :      -0.035499476401 Eh
   MAX-DP              :       0.063358400870
   RMS-DP              :       0.000798237361
   Actual Damping      :       0.9200
   Actual Level Shift  :       0.2500 Eh
   Int. Num. El.       :    42.00119406 (UP=   21.00059703 DN=   21.00059703)
   Exchange            :   -26.92699491
   Correlation         :    -1.59991181
   DIIS-Error          :       0.388609796031
   DIIS coefficients:
     -1.54387   2.54387


                         ----------------------------
                         !        ITERATION     4   !
                         ----------------------------
   Total Energy        :    -335.781717325598 Eh
   Energy Change       :      -0.023211250395 Eh
   MAX-DP              :       0.035196205802
   RMS-DP              :       0.000534630134
   Actual Damping      :       0.9200
   Actual Level Shift  :       0.2500 Eh
   Int. Num. El.       :    42.00121149 (UP=   21.00060575 DN=   21.00060575)
   Exchange            :   -26.83959599
   Correlation         :    -1.59598546
   DIIS-Error          :       0.354418785043
   DIIS coefficients:
     -0.96860  -0.69791   2.66651


                         ----------------------------
                         !        ITERATION     5   !
                         ----------------------------
   Total Energy        :    -335.796830796453 Eh
   Energy Change       :      -0.015113470855 Eh
   MAX-DP              :       0.011083871462
   RMS-DP              :       0.000327228765
   Actual Damping      :       0.9200
   Actual Level Shift  :       0.2500 Eh
   Int. Num. El.       :    42.00121442 (UP=   21.00060721 DN=   21.00060721)
   Exchange            :   -26.78578816
   Correlation         :    -1.59369186
   DIIS-Error          :       0.323935396141
   DIIS coefficients:
     -0.61375  -0.66227  -0.49223   2.76825


                         ----------------------------
                         !        ITERATION     6   !
                         ----------------------------
   Total Energy        :    -335.807891804198 Eh
   Energy Change       :      -0.011061007745 Eh
   MAX-DP              :       0.006653800790
   RMS-DP              :       0.000217349452
   Actual Damping      :       0.9200
   Actual Level Shift  :       0.2500 Eh
   Int. Num. El.       :    42.00121401 (UP=   21.00060701 DN=   21.00060701)
   Exchange            :   -26.75522598
   Correlation         :    -1.59261362
   DIIS-Error          :       0.296633277022
   DIIS coefficients:
     -0.44467  -0.54958  -0.55198  -0.37135   2.91758


                         ----------------------------
                         !        ITERATION     7   !
                         ----------------------------
   Total Energy        :    -335.816920982079 Eh
   Energy Change       :      -0.009029177882 Eh
   MAX-DP              :       0.005944545586
   RMS-DP              :       0.000179666420
   Actual Damping      :       0.9200
   Actual Level Shift  :       0.2500 Eh
   Int. Num. El.       :    42.00121518 (UP=   21.00060759 DN=   21.00060759)
   Exchange            :   -26.73819883
   Correlation         :    -1.59224585
   DIIS-Error          :       0.272280507026
   DIIS coefficients:
      3.19882  -0.80040  -0.65858  -0.47699  -0.26284


                         ----------------------------
                         !        ITERATION     8   !
                         ----------------------------
   Total Energy        :    -335.825230455119 Eh
   Energy Change       :      -0.008309473040 Eh
   MAX-DP              :       0.005245838886
   RMS-DP              :       0.000181067483
   Actual Damping      :       0.9200
   Actual Level Shift  :       0.2500 Eh
   Int. Num. El.       :    42.00122249 (UP=   21.00061124 DN=   21.00061124)
   Exchange            :   -26.72465724
   Correlation         :    -1.59212429
   DIIS-Error          :       0.250478962102
   DIIS coefficients:
     -0.30634   3.50584  -1.00034  -0.70840  -0.49076


                         ----------------------------
                         !        ITERATION     9   !
                         ----------------------------
   Total Energy        :    -335.833350321759 Eh
   Energy Change       :      -0.008119866639 Eh
   MAX-DP              :       0.005807965166
   RMS-DP              :       0.000194500651
   Actual Damping      :       0.9200
   Actual Level Shift  :       0.2500 Eh
   Int. Num. El.       :    42.00123652 (UP=   21.00061826 DN=   21.00061826)
   Exchange            :   -26.70804961
   Correlation         :    -1.59191131
   DIIS-Error          :       0.230592199868
   DIIS coefficients:
     -0.63598  -0.42315   3.80318  -0.96425  -0.77980


                         ----------------------------
                         !        ITERATION    10   !
                         ----------------------------
   Total Energy        :    -335.841031165800 Eh
   Energy Change       :      -0.007680844041 Eh
   MAX-DP              :       0.005814104240
   RMS-DP              :       0.000191396124
   Actual Damping      :       0.9200
   Actual Level Shift  :       0.2500 Eh
   Int. Num. El.       :    42.00125167 (UP=   21.00062584 DN=   21.00062584)
   Exchange            :   -26.68906872
   Correlation         :    -1.59153473
   DIIS-Error          :       0.212114310291
   DIIS coefficients:
     -0.78632  -0.63464  -0.39355   3.72997  -0.91546


                         ----------------------------
                         !        ITERATION    11   !
                         ----------------------------
   Total Energy        :    -335.848005798745 Eh
   Energy Change       :      -0.006974632945 Eh
   MAX-DP              :       0.005344115764
   RMS-DP              :       0.000172810573
   Actual Damping      :       0.9200
   Actual Level Shift  :       0.2500 Eh
   Int. Num. El.       :    42.00126361 (UP=   21.00063180 DN=   21.00063180)
   Exchange            :   -26.67106368
   Correlation         :    -1.59111214
   DIIS-Error          :       0.194849804034
   DIIS coefficients:
     -0.86894  -0.74060  -0.58429  -0.34943   3.54325


                         ----------------------------
                         !        ITERATION    12   !
                         ----------------------------
   Total Energy        :    -335.854236028852 Eh
   Energy Change       :      -0.006230230107 Eh
   MAX-DP              :       0.004748768698
   RMS-DP              :       0.000151128630
   Actual Damping      :       0.9200
   Actual Level Shift  :       0.2500 Eh
   Int. Num. El.       :    42.00127241 (UP=   21.00063621 DN=   21.00063621)
   Exchange            :   -26.65552890
   Correlation         :    -1.59074291
   DIIS-Error          :       0.178842682943
   DIIS coefficients:
      3.46952  -0.84047  -0.72676  -0.56918  -0.33311


                         ----------------------------
                         !        ITERATION    13   !
                         ----------------------------
   Total Energy        :    -335.859815037019 Eh
   Energy Change       :      -0.005579008167 Eh
   MAX-DP              :       0.004261623995
   RMS-DP              :       0.000134041733
   Actual Damping      :       0.9200
   Actual Level Shift  :       0.2500 Eh
   Int. Num. El.       :    42.00127970 (UP=   21.00063985 DN=   21.00063985)
   Exchange            :   -26.64248435
   Correlation         :    -1.59045785
   DIIS-Error          :       0.164172711350
   DIIS coefficients:
     -0.32885   3.50023  -0.85711  -0.74240  -0.57187


                         ----------------------------
                         !        ITERATION    14   !
                         ----------------------------
   Total Energy        :    -335.864859115934 Eh
   Energy Change       :      -0.005044078915 Eh
   MAX-DP              :       0.003944691275
   RMS-DP              :       0.000122446486
   Actual Damping      :       0.9200
   Actual Level Shift  :       0.2500 Eh
   Int. Num. El.       :    42.00128667 (UP=   21.00064333 DN=   21.00064333)
   Exchange            :   -26.63125983
   Correlation         :    -1.59023953
   DIIS-Error          :       0.150809983709
   DIIS coefficients:
     -0.58071  -0.33167   3.56525  -0.88980  -0.76307


                         ----------------------------
                         !        ITERATION    15   !
                         ----------------------------
   Total Energy        :    -335.869455857955 Eh
   Energy Change       :      -0.004596742021 Eh
   MAX-DP              :       0.003745228952
   RMS-DP              :       0.000113917964
   Actual Damping      :       0.9200
   Actual Level Shift  :       0.2500 Eh
   Int. Num. El.       :    42.00129363 (UP=   21.00064681 DN=   21.00064681)
   Exchange            :   -26.62114678
   Correlation         :    -1.59005563
   DIIS-Error          :       0.138613362979
   DIIS coefficients:
     -0.77453  -0.58861  -0.33730   3.60846  -0.90801


                         ----------------------------
                         !        ITERATION    16   !
                         ----------------------------
   Total Energy        :    -335.873656359935 Eh
   Energy Change       :      -0.004200501979 Eh
   MAX-DP              :       0.003571763945
   RMS-DP              :       0.000106017729
   Actual Damping      :       0.9200
   Actual Level Shift  :       0.2500 Eh
   Int. Num. El.       :    42.00130034 (UP=   21.00065017 DN=   21.00065017)
   Exchange            :   -26.61178004
   Correlation         :    -1.58988469
   DIIS-Error          :       0.127413127608
   DIIS coefficients:
     -0.90824  -0.77639  -0.59270  -0.34091   3.61824


                         ----------------------------
                         !        ITERATION    17   !
                         ----------------------------
   Total Energy        :    -335.877491657589 Eh
   Energy Change       :      -0.003835297654 Eh
   MAX-DP              :       0.003367204112
   RMS-DP              :       0.000097825793
   Actual Damping      :       0.9200
   Actual Level Shift  :       0.2500 Eh
   Int. Num. El.       :    42.00130654 (UP=   21.00065327 DN=   21.00065327)
   Exchange            :   -26.60312525
   Correlation         :    -1.58972278
   DIIS-Error          :       0.117090348439
   DIIS coefficients:
      3.60638  -0.90217  -0.77327  -0.59122  -0.33972


                         ----------------------------
                         !        ITERATION    18   !
                         ----------------------------
   Total Energy        :    -335.880990320284 Eh
   Energy Change       :      -0.003498662695 Eh
   MAX-DP              :       0.003139150082
   RMS-DP              :       0.000089676448
   Actual Damping      :       0.9200
   Actual Level Shift  :       0.2500 Eh
   Int. Num. El.       :    42.00131215 (UP=   21.00065608 DN=   21.00065608)
   Exchange            :   -26.59525199
   Correlation         :    -1.58957465
   DIIS-Error          :       0.107581977176
   DIIS coefficients:
     -0.33801   3.59473  -0.89757  -0.77020  -0.58895


                         ----------------------------
                         !        ITERATION    19   !
                         ----------------------------
   Total Energy        :    -335.884183101243 Eh
   Energy Change       :      -0.003192780959 Eh
   MAX-DP              :       0.002919661990
   RMS-DP              :       0.000082103913
   Actual Damping      :       0.9200
   Actual Level Shift  :       0.2500 Eh
   Int. Num. El.       :    42.00131727 (UP=   21.00065863 DN=   21.00065863)
   Exchange            :   -26.58817225
   Correlation         :    -1.58944407
   DIIS-Error          :       0.098844184177
   DIIS coefficients:
     -0.58910  -0.33752   3.59442  -0.89707  -0.77073

               *** Restarting incremental Fock matrix formation ***
                                   *** Resetting DIIS ***

                         ----------------------------
                         !        ITERATION    20   !
                         ----------------------------
   Total Energy        :    -335.887100354096 Eh
   Energy Change       :      -0.002917252854 Eh
   MAX-DP              :       0.002776611257
   RMS-DP              :       0.000090652863
   Actual Damping      :       0.9200
   Actual Level Shift  :       0.2500 Eh
   Int. Num. El.       :    42.00132196 (UP=   21.00066098 DN=   21.00066098)
   Exchange            :   -26.58182176
   Correlation         :    -1.58933067
   DIIS-Error          :       0.090826439869


                         ----------------------------
                         !        ITERATION    21   !
                         ----------------------------
   Total Energy        :    -335.889830692630 Eh
   Energy Change       :      -0.002730338533 Eh
   MAX-DP              :       0.002635492172
   RMS-DP              :       0.000080665555
   Actual Damping      :       0.9200
   Actual Level Shift  :       0.2500 Eh
   Int. Num. El.       :    42.00132911 (UP=   21.00066455 DN=   21.00066455)
   Exchange            :   -26.57138530
   Correlation         :    -1.58910950
   DIIS-Error          :       0.082930024751
   DIIS coefficients:
     -1.56187   2.56187


                         ----------------------------
                         !        ITERATION    22   !
                         ----------------------------
   Total Energy        :    -335.892298624966 Eh
   Energy Change       :      -0.002467932337 Eh
   MAX-DP              :       0.002406549701
   RMS-DP              :       0.000066433515
   Actual Damping      :       0.9200
   Actual Level Shift  :       0.2500 Eh
   Int. Num. El.       :    42.00133487 (UP=   21.00066743 DN=   21.00066743)
   Exchange            :   -26.56309284
   Correlation         :    -1.58891997
   DIIS-Error          :       0.075880653958
   DIIS coefficients:
     -1.39537  -0.83970   3.23506


                         ----------------------------
                         !        ITERATION    23   !
                         ----------------------------
   Total Energy        :    -335.894526678156 Eh
   Energy Change       :      -0.002228053190 Eh
   MAX-DP              :       0.002153042235
   RMS-DP              :       0.000055986143
   Actual Damping      :       0.9200
   Actual Level Shift  :       0.2500 Eh
   Int. Num. El.       :    42.00133852 (UP=   21.00066926 DN=   21.00066926)
   Exchange            :   -26.55790802
   Correlation         :    -1.58880826
   DIIS-Error          :       0.069647112887
   DIIS coefficients:
     -1.01178  -0.83139  -0.50485   3.34802


                         ----------------------------
                         !        ITERATION    24   !
                         ----------------------------
   Total Energy        :    -335.896549911773 Eh
   Energy Change       :      -0.002023233616 Eh
   MAX-DP              :       0.001937240381
   RMS-DP              :       0.000049151310
   Actual Damping      :       0.9200
   Actual Level Shift  :       0.2500 Eh
   Int. Num. El.       :    42.00134098 (UP=   21.00067049 DN=   21.00067049)
   Exchange            :   -26.55460921
   Correlation         :    -1.58875524
   DIIS-Error          :       0.064035200509
   DIIS coefficients:
     -0.73254  -0.69355  -0.57753  -0.34265   3.34627


                         ----------------------------
                         !        ITERATION    25   !
                         ----------------------------
   Total Energy        :    -335.898400827571 Eh
   Energy Change       :      -0.001850915799 Eh
   MAX-DP              :       0.001799506165
   RMS-DP              :       0.000045795102
   Actual Damping      :       0.9200
   Actual Level Shift  :       0.2500 Eh
   Int. Num. El.       :    42.00134304 (UP=   21.00067152 DN=   21.00067152)
   Exchange            :   -26.55223120
   Correlation         :    -1.58873518
   DIIS-Error          :       0.058926419277
   DIIS coefficients:
      3.58211  -0.90507  -0.77570  -0.57900  -0.32233


                         ----------------------------
                         !        ITERATION    26   !
                         ----------------------------
   Total Energy        :    -335.900109567119 Eh
   Energy Change       :      -0.001708739547 Eh
   MAX-DP              :       0.001718885148
   RMS-DP              :       0.000043849208
   Actual Damping      :       0.9200
   Actual Level Shift  :       0.2500 Eh
   Int. Num. El.       :    42.00134537 (UP=   21.00067269 DN=   21.00067269)
   Exchange            :   -26.54974519
   Correlation         :    -1.58871653
   DIIS-Error          :       0.054199720313
   DIIS coefficients:
     -0.34934   3.73064  -0.97371  -0.80594  -0.60165


                         ----------------------------
                         !        ITERATION    27   !
                         ----------------------------
   Total Energy        :    -335.901685777872 Eh
   Energy Change       :      -0.001576210754 Eh
   MAX-DP              :       0.001641918894
   RMS-DP              :       0.000041481961
   Actual Damping      :       0.9200
   Actual Level Shift  :       0.2500 Eh
   Int. Num. El.       :    42.00134794 (UP=   21.00067397 DN=   21.00067397)
   Exchange            :   -26.54703824
   Correlation         :    -1.58868777
   DIIS-Error          :       0.049824436973
   DIIS coefficients:
     -0.62272  -0.36398   3.75120  -0.95510  -0.80940


                         ----------------------------
                         !        ITERATION    28   !
                         ----------------------------
   Total Energy        :    -335.903134682142 Eh
   Energy Change       :      -0.001448904270 Eh
   MAX-DP              :       0.001545837262
   RMS-DP              :       0.000038362093
   Actual Damping      :       0.9200
   Actual Level Shift  :       0.2500 Eh
   Int. Num. El.       :    42.00135038 (UP=   21.00067519 DN=   21.00067519)
   Exchange            :   -26.54443983
   Correlation         :    -1.58865390
   DIIS-Error          :       0.045793307681
   DIIS coefficients:
     -0.79266  -0.60767  -0.35048   3.67973  -0.92892


                         ----------------------------
                         !        ITERATION    29   !
                         ----------------------------
   Total Energy        :    -335.904464763852 Eh
   Energy Change       :      -0.001330081710 Eh
   MAX-DP              :       0.001438648176
   RMS-DP              :       0.000035020448
   Actual Damping      :       0.9200
   Actual Level Shift  :       0.2500 Eh
   Int. Num. El.       :    42.00135251 (UP=   21.00067625 DN=   21.00067625)
   Exchange            :   -26.54215334
   Correlation         :    -1.58862256
   DIIS-Error          :       0.042088751982
   DIIS coefficients:
     -0.90999  -0.77852  -0.59615  -0.34177   3.62644


                         ----------------------------
                         !        ITERATION    30   !
                         ----------------------------
   Total Energy        :    -335.905686170540 Eh
   Energy Change       :      -0.001221406687 Eh
   MAX-DP              :       0.001335829688
   RMS-DP              :       0.000031997643
   Actual Damping      :       0.9200
   Actual Level Shift  :       0.2500 Eh
   Int. Num. El.       :    42.00135435 (UP=   21.00067718 DN=   21.00067718)
   Exchange            :   -26.54018549
   Correlation         :    -1.58859733
   DIIS-Error          :       0.038687169828
   DIIS coefficients:
      3.62809  -0.91101  -0.78198  -0.59590  -0.33920


                         ----------------------------
                         !        ITERATION    31   !
                         ----------------------------
   Total Energy        :    -335.906808779825 Eh
   Energy Change       :      -0.001122609285 Eh
   MAX-DP              :       0.001244474934
   RMS-DP              :       0.000029460435
   Actual Damping      :       0.9200
   Actual Level Shift  :       0.2500 Eh
   Int. Num. El.       :    42.00135603 (UP=   21.00067801 DN=   21.00067801)
   Exchange            :   -26.53844929
   Correlation         :    -1.58857759
   DIIS-Error          :       0.035563904634
   DIIS coefficients:
     -0.34012   3.65376  -0.92458  -0.79028  -0.59879


                         ----------------------------
                         !        ITERATION    32   !
                         ----------------------------
   Total Energy        :    -335.907841134904 Eh
   Energy Change       :      -0.001032355079 Eh
   MAX-DP              :       0.001162768539
   RMS-DP              :       0.000027280877
   Actual Damping      :       0.9200
   Actual Level Shift  :       0.2500 Eh
   Int. Num. El.       :    42.00135762 (UP=   21.00067881 DN=   21.00067881)
   Exchange            :   -26.53686660
   Correlation         :    -1.58856105
   DIIS-Error          :       0.032695247622
   DIIS coefficients:
     -0.60248  -0.34312   3.67409  -0.93321  -0.79529


                         ----------------------------
                         !        ITERATION    33   !
                         ----------------------------
   Total Energy        :    -335.908790543636 Eh
   Energy Change       :      -0.000949408732 Eh
   MAX-DP              :       0.001086802829
   RMS-DP              :       0.000025278470
   Actual Damping      :       0.9200
   Actual Level Shift  :       0.2500 Eh
   Int. Num. El.       :    42.00135913 (UP=   21.00067957 DN=   21.00067957)
   Exchange            :   -26.53540637
   Correlation         :    -1.58854595
   DIIS-Error          :       0.030058837863
   DIIS coefficients:
     -0.79584  -0.60407  -0.34470   3.67836  -0.93375


                         ----------------------------
                         !        ITERATION    34   !
                         ----------------------------
   Total Energy        :    -335.909663589545 Eh
   Energy Change       :      -0.000873045910 Eh
   MAX-DP              :       0.001014733642
   RMS-DP              :       0.000023368841
   Actual Damping      :       0.9200
   Actual Level Shift  :       0.2500 Eh
   Int. Num. El.       :    42.00136055 (UP=   21.00068027 DN=   21.00068027)
   Exchange            :   -26.53406869
   Correlation         :    -1.58853183
   DIIS-Error          :       0.027634595097
   DIIS coefficients:
     -0.93083  -0.79426  -0.60367  -0.34448   3.67324


                         ----------------------------
                         !        ITERATION    35   !
                         ----------------------------
   Total Energy        :    -335.910466406823 Eh
   Energy Change       :      -0.000802817278 Eh
   MAX-DP              :       0.000946578351
   RMS-DP              :       0.000021561492
   Actual Damping      :       0.9200
   Actual Level Shift  :       0.2500 Eh
   Int. Num. El.       :    42.00136185 (UP=   21.00068092 DN=   21.00068092)
   Exchange            :   -26.53285655
   Correlation         :    -1.58851898
   DIIS-Error          :       0.025405203020
   DIIS coefficients:
      3.66938  -0.92902  -0.79353  -0.60310  -0.34374


                         ----------------------------
                         !        ITERATION    36   !
                         ----------------------------
   Total Energy        :    -335.911204706688 Eh
   Energy Change       :      -0.000738299865 Eh
   MAX-DP              :       0.000882644823
   RMS-DP              :       0.000019890704
   Actual Damping      :       0.9200
   Actual Level Shift  :       0.2500 Eh
   Int. Num. El.       :    42.00136304 (UP=   21.00068152 DN=   21.00068152)
   Exchange            :   -26.53176347
   Correlation         :    -1.58850771
   DIIS-Error          :       0.023355558056
   DIIS coefficients:
     -0.34332   3.67055  -0.92989  -0.79427  -0.60306


                         ----------------------------
                         !        ITERATION    37   !
                         ----------------------------
   Total Energy        :    -335.911883742215 Eh
   Energy Change       :      -0.000679035527 Eh
   MAX-DP              :       0.000822879821
   RMS-DP              :       0.000018367026
   Actual Damping      :       0.9200
   Actual Level Shift  :       0.2500 Eh
   Int. Num. El.       :    42.00136414 (UP=   21.00068207 DN=   21.00068207)
   Exchange            :   -26.53077612
   Correlation         :    -1.58849797
   DIIS-Error          :       0.021471750324
   DIIS coefficients:
     -0.60352  -0.34348   3.67461  -0.93206  -0.79555


                         ----------------------------
                         !        ITERATION    38   !
                         ----------------------------
   Total Energy        :    -335.912508313808 Eh
   Energy Change       :      -0.000624571593 Eh
   MAX-DP              :       0.000767085707
   RMS-DP              :       0.000016975042
   Actual Damping      :       0.9200
   Actual Level Shift  :       0.2500 Eh
   Int. Num. El.       :    42.00136516 (UP=   21.00068258 DN=   21.00068258)
   Exchange            :   -26.52988089
   Correlation         :    -1.58848951
   DIIS-Error          :       0.019740487032
   DIIS coefficients:
     -0.79653  -0.60417  -0.34396   3.67842  -0.93376


                         ----------------------------
                         !        ITERATION    39   !
                         ----------------------------
   Total Energy        :    -335.913082813585 Eh
   Energy Change       :      -0.000574499776 Eh
   MAX-DP              :       0.000715107531
   RMS-DP              :       0.000015693095
   Actual Damping      :       0.9200
   Actual Level Shift  :       0.2500 Eh
   Int. Num. El.       :    42.00136612 (UP=   21.00068306 DN=   21.00068306)
   Exchange            :   -26.52906756
   Correlation         :    -1.58848202
   DIIS-Error          :       0.018149184617
   DIIS coefficients:
     -0.93450  -0.79708  -0.60475  -0.34437   3.68071

               *** Restarting incremental Fock matrix formation ***
                                   *** Resetting DIIS ***

                         ----------------------------
                         !        ITERATION    40   !
                         ----------------------------
   Total Energy        :    -335.913611278708 Eh
   Energy Change       :      -0.000528465123 Eh
   MAX-DP              :       0.000648832262
   RMS-DP              :       0.000015362768
   Actual Damping      :       0.9200
   Actual Level Shift  :       0.2500 Eh
   Int. Num. El.       :    42.00136700 (UP=   21.00068350 DN=   21.00068350)
   Exchange            :   -26.52832888
   Correlation         :    -1.58847536
   DIIS-Error          :       0.016686280608


                         ----------------------------
                         !        ITERATION    41   !
                         ----------------------------
   Total Energy        :    -335.914098236861 Eh
   Energy Change       :      -0.000486958153 Eh
   MAX-DP              :       0.000597231256
   RMS-DP              :       0.000013854881
   Actual Damping      :       0.9200
   Actual Level Shift  :       0.2500 Eh
   Int. Num. El.       :    42.00136810 (UP=   21.00068405 DN=   21.00068405)
   Exchange            :   -26.52711937
   Correlation         :    -1.58845681
   DIIS-Error          :       0.015275439667
   DIIS coefficients:
     -1.45512   2.45512


                         ----------------------------
                         !        ITERATION    42   !
                         ----------------------------
   Total Energy        :    -335.914545773605 Eh
   Energy Change       :      -0.000447536744 Eh
   MAX-DP              :       0.000547364622
   RMS-DP              :       0.000012144381
   Actual Damping      :       0.9200
   Actual Level Shift  :       0.2500 Eh
   Int. Num. El.       :    42.00136903 (UP=   21.00068452 DN=   21.00068452)
   Exchange            :   -26.52614959
   Correlation         :    -1.58844114
   DIIS-Error          :       0.014002206466
   DIIS coefficients:
     -1.48923  -0.87184   3.36107


                         ----------------------------
                         !        ITERATION    43   !
                         ----------------------------
   Total Energy        :    -335.914957020444 Eh
   Energy Change       :      -0.000411246839 Eh
   MAX-DP              :       0.000502934740
   RMS-DP              :       0.000010882794
   Actual Damping      :       0.9200
   Actual Level Shift  :       0.2500 Eh
   Int. Num. El.       :    42.00136970 (UP=   21.00068485 DN=   21.00068485)
   Exchange            :   -26.52556502
   Correlation         :    -1.58843406
   DIIS-Error          :       0.012865852317
   DIIS coefficients:
     -1.14155  -0.90713  -0.53854   3.58721


                         ----------------------------
                         !        ITERATION    44   !
                         ----------------------------
   Total Energy        :    -335.915335056688 Eh
   Energy Change       :      -0.000378036244 Eh
   MAX-DP              :       0.000468368837
   RMS-DP              :       0.000009989488
   Actual Damping      :       0.9200
   Actual Level Shift  :       0.2500 Eh
   Int. Num. El.       :    42.00137021 (UP=   21.00068510 DN=   21.00068510)
   Exchange            :   -26.52521096
   Correlation         :    -1.58843325
   DIIS-Error          :       0.011837661849
   DIIS coefficients:
     -0.83595  -0.75661  -0.60684  -0.35357   3.55297


                         ----------------------------
                         !        ITERATION    45   !
                         ----------------------------
   Total Energy        :    -335.915682805474 Eh
   Energy Change       :      -0.000347748786 Eh
   MAX-DP              :       0.000444373833
   RMS-DP              :       0.000009418220
   Actual Damping      :       0.9200
   Actual Level Shift  :       0.2500 Eh
   Int. Num. El.       :    42.00137066 (UP=   21.00068533 DN=   21.00068533)
   Exchange            :   -26.52494633
   Correlation         :    -1.58843513
   DIIS-Error          :       0.010896777156
   DIIS coefficients:
      3.69028  -0.95044  -0.80394  -0.59975  -0.33616


                         ----------------------------
                         !        ITERATION    46   !
                         ----------------------------
   Total Energy        :    -335.916002951184 Eh
   Energy Change       :      -0.000320145710 Eh
   MAX-DP              :       0.000424951953
   RMS-DP              :       0.000008939197
   Actual Damping      :       0.9200
   Actual Level Shift  :       0.2500 Eh
   Int. Num. El.       :    42.00137115 (UP=   21.00068558 DN=   21.00068558)
   Exchange            :   -26.52462942
   Correlation         :    -1.58843558
   DIIS-Error          :       0.010022960249
   DIIS coefficients:
     -0.35664   3.76725  -0.97720  -0.81754  -0.61586


                         ----------------------------
                         !        ITERATION    47   !
                         ----------------------------
   Total Energy        :    -335.916297593419 Eh
   Energy Change       :      -0.000294642235 Eh
   MAX-DP              :       0.000403248840
   RMS-DP              :       0.000008385038
   Actual Damping      :       0.9200
   Actual Level Shift  :       0.2500 Eh
   Int. Num. El.       :    42.00137167 (UP=   21.00068583 DN=   21.00068583)
   Exchange            :   -26.52428020
   Correlation         :    -1.58843415
   DIIS-Error          :       0.009214339995
   DIIS coefficients:
     -0.62307  -0.35863   3.76050  -0.96216  -0.81664


                         ----------------------------
                         !        ITERATION    48   !
                         ----------------------------
   Total Energy        :    -335.916568669055 Eh
   Energy Change       :      -0.000271075637 Eh
   MAX-DP              :       0.000378557697
   RMS-DP              :       0.000007769780
   Actual Damping      :       0.9200
   Actual Level Shift  :       0.2500 Eh
   Int. Num. El.       :    42.00137214 (UP=   21.00068607 DN=   21.00068607)
   Exchange            :   -26.52395822
   Correlation         :    -1.58843221
   DIIS-Error          :       0.008470858582
   DIIS coefficients:
     -0.80316  -0.61051  -0.34932   3.70982  -0.94684


                         ----------------------------
                         !        ITERATION    49   !
                         ----------------------------
   Total Energy        :    -335.916818043409 Eh
   Energy Change       :      -0.000249374354 Eh
   MAX-DP              :       0.000353697464
   RMS-DP              :       0.000007169750
   Actual Damping      :       0.9200
   Actual Level Shift  :       0.2500 Eh
   Int. Num. El.       :    42.00137257 (UP=   21.00068629 DN=   21.00068629)
   Exchange            :   -26.52368569
   Correlation         :    -1.58843076
   DIIS-Error          :       0.007788704224
   DIIS coefficients:
     -0.93583  -0.79768  -0.60756  -0.34651   3.68759


                         ----------------------------
                         !        ITERATION    50   !
                         ----------------------------
   Total Energy        :    -335.917047471148 Eh
   Energy Change       :      -0.000229427739 Eh
   MAX-DP              :       0.000331080617
   RMS-DP              :       0.000006639479
   Actual Damping      :       0.9200
   Actual Level Shift  :       0.2500 Eh
   Int. Num. El.       :    42.00137296 (UP=   21.00068648 DN=   21.00068648)
   Exchange            :   -26.52345409
   Correlation         :    -1.58843002
   DIIS-Error          :       0.007162459841
   DIIS coefficients:
      3.69903  -0.94110  -0.80370  -0.60905  -0.34518


                         ----------------------------
                         !        ITERATION    51   !
                         ----------------------------
   Total Energy        :    -335.917258568405 Eh
   Energy Change       :      -0.000211097256 Eh
   MAX-DP              :       0.000310837800
   RMS-DP              :       0.000006179623
   Actual Damping      :       0.9200
   Actual Level Shift  :       0.2500 Eh
   Int. Num. El.       :    42.00137332 (UP=   21.00068666 DN=   21.00068666)
   Exchange            :   -26.52324551
   Correlation         :    -1.58842968
   DIIS-Error          :       0.006586745386
   DIIS coefficients:
     -0.34609   3.71760  -0.95137  -0.80924  -0.61090


                         ----------------------------
                         !        ITERATION    52   !
                         ----------------------------
   Total Energy        :    -335.917452803734 Eh
   Energy Change       :      -0.000194235329 Eh
   MAX-DP              :       0.000291935849
   RMS-DP              :       0.000005762801
   Actual Damping      :       0.9200
   Actual Level Shift  :       0.2500 Eh
   Int. Num. El.       :    42.00137367 (UP=   21.00068684 DN=   21.00068684)
   Exchange            :   -26.52305046
   Correlation         :    -1.58842938
   DIIS-Error          :       0.006057178679
   DIIS coefficients:
     -0.61282  -0.34798   3.72730  -0.95523  -0.81127


                         ----------------------------
                         !        ITERATION    53   !
                         ----------------------------
   Total Energy        :    -335.917631518718 Eh
   Energy Change       :      -0.000178714984 Eh
   MAX-DP              :       0.000273752643
   RMS-DP              :       0.000005368058
   Actual Damping      :       0.9200
   Actual Level Shift  :       0.2500 Eh
   Int. Num. El.       :    42.00137400 (UP=   21.00068700 DN=   21.00068700)
   Exchange            :   -26.52286911
   Correlation         :    -1.58842903
   DIIS-Error          :       0.005570108431
   DIIS coefficients:
     -0.81022  -0.61300  -0.34860   3.72561  -0.95379


                         ----------------------------
                         !        ITERATION    54   !
                         ----------------------------
   Total Energy        :    -335.917795949594 Eh
   Energy Change       :      -0.000164430876 Eh
   MAX-DP              :       0.000256368372
   RMS-DP              :       0.000004991761
   Actual Damping      :       0.9200
   Actual Level Shift  :       0.2500 Eh
   Int. Num. El.       :    42.00137432 (UP=   21.00068716 DN=   21.00068716)
   Exchange            :   -26.52270405
   Correlation         :    -1.58842867
   DIIS-Error          :       0.005122198342
   DIIS coefficients:
     -0.95096  -0.80885  -0.61277  -0.34845   3.72102


                         ----------------------------
                         !        ITERATION    55   !
                         ----------------------------
   Total Energy        :    -335.917947237923 Eh
   Energy Change       :      -0.000151288329 Eh
   MAX-DP              :       0.000240039058
   RMS-DP              :       0.000004639456
   Actual Damping      :       0.9200
   Actual Level Shift  :       0.2500 Eh
   Int. Num. El.       :    42.00137461 (UP=   21.00068730 DN=   21.00068730)
   Exchange            :   -26.52255566
   Correlation         :    -1.58842838
   DIIS-Error          :       0.004710325882
   DIIS coefficients:
      3.71989  -0.95019  -0.80905  -0.61274  -0.34791


                         ----------------------------
                         !        ITERATION    56   !
                         ----------------------------
   Total Energy        :    -335.918086435506 Eh
   Energy Change       :      -0.000139197583 Eh
   MAX-DP              :       0.000224792448
   RMS-DP              :       0.000004314827
   Actual Damping      :       0.9200
   Actual Level Shift  :       0.2500 Eh
   Int. Num. El.       :    42.00137488 (UP=   21.00068744 DN=   21.00068744)
   Exchange            :   -26.52242197
   Correlation         :    -1.58842820
   DIIS-Error          :       0.004331602852
   DIIS coefficients:
     -0.34752   3.72223  -0.95179  -0.81014  -0.61278


                         ----------------------------
                         !        ITERATION    57   !
                         ----------------------------
   Total Energy        :    -335.918214509170 Eh
   Energy Change       :      -0.000128073664 Eh
   MAX-DP              :       0.000210481502
   RMS-DP              :       0.000004016146
   Actual Damping      :       0.9200
   Actual Level Shift  :       0.2500 Eh
   Int. Num. El.       :    42.00137513 (UP=   21.00068757 DN=   21.00068757)
   Exchange            :   -26.52230057
   Correlation         :    -1.58842809
   DIIS-Error          :       0.003983373294
   DIIS coefficients:
     -0.61299  -0.34765   3.72545  -0.95376  -0.81105


                         ----------------------------
                         !        ITERATION    58   !
                         ----------------------------
   Total Energy        :    -335.918332347471 Eh
   Energy Change       :      -0.000117838301 Eh
   MAX-DP              :       0.000196998186
   RMS-DP              :       0.000003739354
   Actual Damping      :       0.9200
   Actual Level Shift  :       0.2500 Eh
   Int. Num. El.       :    42.00137537 (UP=   21.00068768 DN=   21.00068768)
   Exchange            :   -26.52218988
   Correlation         :    -1.58842803
   DIIS-Error          :       0.003663182270
   DIIS coefficients:
     -0.81145  -0.61339  -0.34811   3.72767  -0.95473


                         ----------------------------
                         !        ITERATION    59   !
                         ----------------------------
   Total Energy        :    -335.918440768011 Eh
   Energy Change       :      -0.000108420539 Eh
   MAX-DP              :       0.000184332276
   RMS-DP              :       0.000003481544
   Actual Damping      :       0.9200
   Actual Level Shift  :       0.2500 Eh
   Int. Num. El.       :    42.00137559 (UP=   21.00068780 DN=   21.00068780)
   Exchange            :   -26.52208905
   Correlation         :    -1.58842799
   DIIS-Error          :       0.003368757018
   DIIS coefficients:
     -0.95477  -0.81163  -0.61388  -0.34852   3.72879

               *** Restarting incremental Fock matrix formation ***
                                   *** Resetting DIIS ***

                         ----------------------------
                         !        ITERATION    60   !
                         ----------------------------
   Total Energy        :    -335.918540527371 Eh
   Energy Change       :      -0.000099759361 Eh
   MAX-DP              :       0.000164846945
   RMS-DP              :       0.000003190445
   Actual Damping      :       0.9200
   Actual Level Shift  :       0.2500 Eh
   Int. Num. El.       :    42.00137581 (UP=   21.00068790 DN=   21.00068790)
   Exchange            :   -26.52199745
   Correlation         :    -1.58842797
   DIIS-Error          :       0.003098007981


                         ----------------------------
                         !        ITERATION    61   !
                         ----------------------------
   Total Energy        :    -335.918632326359 Eh
   Energy Change       :      -0.000091798988 Eh
   MAX-DP              :       0.001874395744
   RMS-DP              :       0.000036151864
   Actual Damping      :       0.0000
   Actual Level Shift  :       0.2500 Eh
   Int. Num. El.       :    42.00137602 (UP=   21.00068801 DN=   21.00068801)
   Exchange            :   -26.52184805
   Correlation         :    -1.58842651
   DIIS-Error          :       0.002840798773
   DIIS coefficients:
     -1.36702   2.36702


                         ----------------------------
                         !        ITERATION    62   !
                         ----------------------------
   Total Energy        :    -335.919688112117 Eh
   Energy Change       :      -0.001055785758 Eh
   MAX-DP              :       0.000221733355
   RMS-DP              :       0.000006854555
   Actual Damping      :       0.0000
   Actual Level Shift  :       0.2500 Eh
   Int. Num. El.       :    42.00137840 (UP=   21.00068920 DN=   21.00068920)
   Exchange            :   -26.52034073
   Correlation         :    -1.58841179
   DIIS-Error          :       0.000407679001
   DIIS coefficients:
      0.08780   0.05773   0.85447


                         ----------------------------
                         !        ITERATION    63   !
                         ----------------------------
   Total Energy        :    -335.919688303872 Eh
   Energy Change       :      -0.000000191755 Eh
   MAX-DP              :       0.000113023583
   RMS-DP              :       0.000002827244
   Actual Damping      :       0.0000
   Actual Level Shift  :       0.2500 Eh
   Int. Num. El.       :    42.00137786 (UP=   21.00068893 DN=   21.00068893)
   Exchange            :   -26.52150811
   Correlation         :    -1.58843908
   DIIS-Error          :       0.000328728250
   DIIS coefficients:
     -0.00009   0.00474   0.40885   0.58650


                         ----------------------------
                         !        ITERATION    64   !
                         ----------------------------
   Total Energy        :    -335.919688466228 Eh
   Energy Change       :      -0.000000162356 Eh
   MAX-DP              :       0.000076783352
   RMS-DP              :       0.000001708765
   Actual Damping      :       0.0000
   Actual Level Shift  :       0.2500 Eh
   Int. Num. El.       :    42.00137812 (UP=   21.00068906 DN=   21.00068906)
   Exchange            :   -26.52122687
   Correlation         :    -1.58843636
   DIIS-Error          :       0.000070431808
   DIIS coefficients:
     -0.00618  -0.00556   0.13825   0.13302   0.74047


                         ----------------------------
                         !        ITERATION    65   !
                         ----------------------------
   Total Energy        :    -335.919688498233 Eh
   Energy Change       :      -0.000000032005 Eh
   MAX-DP              :       0.000070842076
   RMS-DP              :       0.000001416708
   Actual Damping      :       0.0000
   Actual Level Shift  :       0.2500 Eh
   Int. Num. El.       :    42.00137836 (UP=   21.00068918 DN=   21.00068918)
   Exchange            :   -26.52107620
   Correlation         :    -1.58843127
   DIIS-Error          :       0.000040174086
   DIIS coefficients:
      0.96777  -0.00199  -0.03581  -0.03345   0.10348


                         ----------------------------
                         !        ITERATION    66   !
                         ----------------------------
   Total Energy        :    -335.919688516979 Eh
   Energy Change       :      -0.000000018746 Eh
   MAX-DP              :       0.000058397035
   RMS-DP              :       0.000001226840
   Actual Damping      :       0.0000
   Actual Level Shift  :       0.2500 Eh
   Int. Num. El.       :    42.00137844 (UP=   21.00068922 DN=   21.00068922)
   Exchange            :   -26.52107940
   Correlation         :    -1.58843060
   DIIS-Error          :       0.000029065299
   DIIS coefficients:
      0.50109   0.84824  -0.07245  -0.01938  -0.25750


                         ----------------------------
                         !        ITERATION    67   !
                         ----------------------------
   Total Energy        :    -335.919688532321 Eh
   Energy Change       :      -0.000000015342 Eh
   MAX-DP              :       0.000056282745
   RMS-DP              :       0.000001253474
   Actual Damping      :       0.0000
   Actual Level Shift  :       0.2500 Eh
   Int. Num. El.       :    42.00137854 (UP=   21.00068927 DN=   21.00068927)
   Exchange            :   -26.52109150
   Correlation         :    -1.58843123
   DIIS-Error          :       0.000026834116
   DIIS coefficients:
     -0.29991  -0.38449   1.96656   0.06114  -0.34330


                         ----------------------------
                         !        ITERATION    68   !
                         ----------------------------
   Total Energy        :    -335.919688544172 Eh
   Energy Change       :      -0.000000011850 Eh
   MAX-DP              :       0.000048636998
   RMS-DP              :       0.000001001496
   Actual Damping      :       0.0000
   Actual Level Shift  :       0.2500 Eh
   Int. Num. El.       :    42.00137865 (UP=   21.00068932 DN=   21.00068932)
   Exchange            :   -26.52109717
   Correlation         :    -1.58843123
   DIIS-Error          :       0.000028937673
   DIIS coefficients:
     -0.54054   0.07169   0.79122   0.84945  -0.17182


                         ----------------------------
                         !        ITERATION    69   !
                         ----------------------------
   Total Energy        :    -335.919688552278 Eh
   Energy Change       :      -0.000000008106 Eh
   MAX-DP              :       0.000041627230
   RMS-DP              :       0.000000848677
   Actual Damping      :       0.0000
   Actual Level Shift  :       0.2500 Eh
   Int. Num. El.       :    42.00137873 (UP=   21.00068936 DN=   21.00068936)
   Exchange            :   -26.52109578
   Correlation         :    -1.58843128
   DIIS-Error          :       0.000024257056
   DIIS coefficients:
     -0.38543   0.30985   0.08037  -0.93852   1.93374


                         ----------------------------
                         !        ITERATION    70   !
                         ----------------------------
   Total Energy        :    -335.919688558178 Eh
   Energy Change       :      -0.000000005900 Eh
   MAX-DP              :       0.000031815794
   RMS-DP              :       0.000000658571
   Actual Damping      :       0.0000
   Actual Level Shift  :       0.2500 Eh
   Int. Num. El.       :    42.00137880 (UP=   21.00068940 DN=   21.00068940)
   Exchange            :   -26.52107832
   Correlation         :    -1.58843070
   DIIS-Error          :       0.000018557596
   DIIS coefficients:
      1.34677   0.01782   0.13695  -0.60446   0.10292


                         ----------------------------
                         !        ITERATION    71   !
                         ----------------------------
   Total Energy        :    -335.919688562206 Eh
[...]
 2 O  f-1            21.5       3.2       1.9       1.1       0.1       8.9
 2 O  f+2             6.6       2.6      46.9      20.6       2.1       0.7
 2 O  f-2             1.4       5.2       2.8       0.5       4.8       0.7
 2 O  f+3             8.1      10.5       2.4       2.3       0.0      19.4
 2 O  f-3             7.7       0.6       0.9       0.5      21.0       0.3
 3 H  s               0.0       0.0       0.1       0.9       1.6       0.3
 3 H  pz              0.0       0.1       0.0       0.0       0.1       0.0
 3 H  px              0.0       0.0       0.3       0.0       0.1       0.0
 3 H  py              0.0       0.0       0.2       0.0       0.1       0.1

                    120       121       122       123       124       125   
                   6.10441   6.12253   6.32094   6.43924   6.46448   6.49485
                   0.00000   0.00000   0.00000   0.00000   0.00000   0.00000
                  --------  --------  --------  --------  --------  --------
 0 C  s               0.0       0.0       0.0       0.0       6.3       0.0
 0 C  pz              0.3       0.6       0.0       0.2       0.3       0.0
 0 C  px              0.1       0.2       0.0       0.1       0.1       0.1
 0 C  py              0.1       0.1       0.0       0.1       0.8       0.1
 0 C  dz2             1.7       0.0       0.1       0.2       1.6       0.0
 0 C  dxz             1.9       0.8       0.2       0.0       1.8       0.1
 0 C  dyz             0.6       1.3       0.1       0.1       0.2       0.0
 0 C  dx2y2           1.3       1.0       0.2       0.0       2.0       0.0
 0 C  dxy             0.3       0.0       0.0       0.0       3.9       0.1
 0 C  f0              0.0       1.9       0.1       0.2       0.0       0.0
 0 C  f+1             3.6       0.4       0.1       0.5       0.0       0.0
 0 C  f-1             0.2       0.2       0.0       0.3       0.0       0.0
 0 C  f+2             0.5       0.0       0.0       0.1       0.2       0.1
 0 C  f-2             0.1       3.0       0.1       0.5       0.0       0.0
 0 C  f+3             0.9       1.6       0.0       0.7       0.2       0.0
 0 C  f-3             0.6       1.0       0.2       0.0       0.0       0.0
 1 O  s               0.0       0.0       0.0       0.0       1.7       0.4
 1 O  pz              1.3       0.1       0.0       0.2       0.4       0.0
 1 O  px              0.4       0.0       0.0       0.0       1.9       0.1
 1 O  py              0.2       0.0       0.0       0.0       0.0       0.2
 1 O  dz2            12.3       3.9      12.1      10.7       0.5       9.8
 1 O  dxz             7.9       0.2       2.8       2.8      10.9       2.4
 1 O  dyz             1.0       3.6      18.7      14.9       3.9       8.3
 1 O  dx2y2           4.4       1.0       7.1       5.8       2.4       5.3
 1 O  dxy             2.8       1.7       6.2       5.6       1.1       7.6
 1 O  f0              0.0       1.8       0.3       0.9       2.9       0.2
 1 O  f+1            26.3       2.4       0.6       4.0       0.1       0.2
 1 O  f-1             0.2       2.6       0.3       0.4       0.2       0.1
 1 O  f+2             2.1       0.0       0.1       0.3       8.7       0.1
 1 O  f-2             2.6       0.5       0.6       0.1       0.0       0.0
 1 O  f+3             5.3       0.8       0.8       0.0       7.4       0.1
 1 O  f-3             2.5       1.6       0.0       1.6       0.1       0.5
 2 O  s               0.0       0.0       0.0       0.0       1.7       0.3
 2 O  pz              0.0       1.4       0.0       0.2       0.0       0.1
 2 O  px              0.0       0.4       0.0       0.1       1.1       0.1
 2 O  py              0.0       0.2       0.0       0.0       1.2       0.1
 2 O  dz2             4.9       0.4      30.3      28.9       3.8       4.1
 2 O  dxz             2.1       6.2       2.1       1.9       0.4      36.2
 2 O  dyz             0.0      11.8       3.4       2.3       3.3      17.5
 2 O  dx2y2           1.0       7.9       0.1       0.1       3.5       1.5
 2 O  dxy             1.2       0.9      10.2       8.9       6.1       2.1
 2 O  f0              0.6       9.7       0.6       1.1       0.0       0.1
 2 O  f+1             1.1       0.1       0.3       0.5       2.4       0.2
 2 O  f-1             3.1       0.7       0.2       1.1       3.7       0.2
 2 O  f+2             0.6       1.0       0.0       0.6       0.4       0.9
 2 O  f-2             0.9      15.1       0.9       1.3       0.0       0.1
 2 O  f+3             3.0       1.7       0.8       0.2      10.3       0.0
 2 O  f-3             0.0      10.1       0.2       2.3       1.9       0.2

                    126       127       128       129       130       131   
                   6.52685   6.65956   6.77206   6.85800   6.88304   7.08850
                   0.00000   0.00000   0.00000   0.00000   0.00000   0.00000
                  --------  --------  --------  --------  --------  --------
 0 C  s               0.8       0.1       0.0       0.0       0.0       0.1
 0 C  pz              0.0       0.0       1.7       0.0       0.0       0.3
 0 C  px              0.0       0.1       0.5       0.0       0.3       0.1
 0 C  py              0.1       0.1       0.3       0.0       0.1       0.8
 0 C  dz2             0.2       0.0       0.4       0.6       0.4       0.1
 0 C  dxz             0.3       0.3       0.0       1.4       1.5       0.2
 0 C  dyz             0.1       0.0       0.2       0.9       0.0       0.9
 0 C  dx2y2           0.2       0.4       0.0       1.3       2.0       1.4
 0 C  dxy             0.3       0.3       0.2       0.1       2.1       1.1
 0 C  f0              0.0       0.0       0.0       0.1       0.0       0.0
 0 C  f+1             0.0       0.3       0.1       0.2       0.1       0.0
 0 C  f-1             0.0       0.1       0.0       0.0       0.1       0.0
 0 C  f+2             0.0       0.2       0.0       0.0       0.2       0.0
 0 C  f-2             0.0       2.2       0.1       0.1       0.8       0.0
 0 C  f+3             0.0       0.5       0.1       0.0       0.3       0.1
 0 C  f-3             0.0       2.9       0.0       0.2       0.9       0.1
 1 O  s               0.2       0.1       0.0       0.0       0.4       0.4
 1 O  pz              0.1       0.1       0.5       0.7       0.2       0.2
 1 O  px              0.3       0.1       0.1       0.2       0.2       0.1
 1 O  py              0.1       0.3       0.1       0.1       0.9       0.7
 1 O  dz2            10.3       3.4      11.3      16.6       0.2       5.1
 1 O  dxz             2.7       0.2      13.1       8.0      18.4       0.2
 1 O  dyz            26.9       8.3       4.3       0.5       2.1       2.7
 1 O  dx2y2          19.6       3.7       9.1       4.5       7.2       0.3
 1 O  dxy             2.1      28.3       2.1       4.1       4.2      26.5
 1 O  f0              0.4       0.1       0.0       0.0       0.1       0.0
 1 O  f+1             0.0       0.3       6.4       6.8       1.6       0.7
 1 O  f-1             0.2       0.1       0.0       0.2       0.0       0.1
 1 O  f+2             1.1       0.2       0.4       0.6       1.4       0.4
 1 O  f-2             0.3       0.2       0.7       1.0       4.1       0.6
 1 O  f+3             0.0       0.1       1.0       2.0       0.0       0.5
 1 O  f-3             0.0       1.2       0.5       0.6       6.8       2.3
 2 O  s               0.3       0.1       0.0       0.0       0.5       0.3
 2 O  pz              0.0       0.1       0.4       0.7       0.3       0.4
 2 O  px              0.2       0.1       0.1       0.2       0.5       0.5
 2 O  py              0.3       0.2       0.1       0.1       0.3       0.4
 2 O  dz2             0.8       0.2       1.6       0.2       6.7       0.9
 2 O  dxz            13.6       1.7      12.5       9.1       0.2       9.7
 2 O  dyz            11.5      11.8      11.7      15.1       2.8       4.8
 2 O  dx2y2           0.0      21.7      12.0      11.1       6.8      25.7
 2 O  dxy             4.0       5.9       0.0       0.6      11.8       3.4
 2 O  f0              0.0       0.1       2.0       3.0       1.2       0.9
 2 O  f+1             0.1       0.0       0.2       0.3       0.1       0.1
 2 O  f-1             0.4       0.1       0.1       0.0       0.6       0.2
 2 O  f+2             0.3       0.4       0.1       0.0       0.1       0.2
 2 O  f-2             0.2       0.8       3.6       4.6       3.1       1.6
 2 O  f+3             0.6       1.2       0.6       1.6       3.4       2.1
 2 O  f-3             0.0       0.4       1.8       2.3       4.9       2.6
 3 H  s               0.1       0.2       0.0       0.0       0.0       0.1
 3 H  px              0.0       0.4       0.0       0.0       0.0       0.0
 3 H  py              0.0       0.2       0.0       0.0       0.0       0.0
 4 Ag s               0.5       0.0       0.0       0.0       0.0       0.0
 4 Ag py              0.2       0.0       0.0       0.0       0.0       0.0

                    132       133       134       135       136       137   
                   7.14675   7.16044  23.44181  33.49835  43.69107  43.84696
                   0.00000   0.00000   0.00000   0.00000   0.00000   0.00000
                  --------  --------  --------  --------  --------  --------
 0 C  s               0.2       6.4      95.8       0.0       0.0       0.0
 0 C  pz              0.1       0.2       0.0       0.0       0.0       0.0
 0 C  px              2.0       0.2       0.0       0.0       0.0       0.0
 0 C  py              0.9       0.4       0.0       0.0       0.0       0.0
 0 C  dz2             0.2       0.1       0.1       0.0       0.0       0.0
 0 C  dxz             0.6       0.1       0.1       0.0       0.0       0.0
 0 C  dyz             0.0       0.1       0.0       0.0       0.0       0.0
 0 C  dx2y2           0.9       0.3       0.0       0.0       0.0       0.0
 0 C  dxy             1.3       0.1       0.1       0.0       0.0       0.0
 0 C  f0              0.6       0.2       0.0       0.0       0.0       0.0
 0 C  f+1             1.0       0.1       0.0       0.0       0.0       0.0
 0 C  f-1             0.0       0.3       0.0       0.0       0.0       0.0
 0 C  f+2             0.1       0.9       0.0       0.0       0.0       0.0
 0 C  f-2             2.3       0.2       0.0       0.0       0.0       0.0
 0 C  f+3             0.2       2.1       0.1       0.0       0.0       0.0
 0 C  f-3             5.3       0.0       0.0       0.0       0.0       0.0
 1 O  s               0.5       1.7       0.8       0.0      46.4      53.6
 1 O  pz              0.1       0.5       0.1       0.0       0.0       0.0
 1 O  px              0.7       2.0       0.5       0.0       0.0       0.0
 1 O  py              1.5       0.0       0.0       0.0       0.0       0.0
 1 O  dz2             0.7       1.2       0.0       0.0       0.0       0.0
 1 O  dxz             4.3      19.0       0.1       0.0       0.0       0.0
 1 O  dyz             0.8       0.0       0.0       0.0       0.0       0.0
 1 O  dx2y2           6.9      16.9       0.1       0.0       0.0       0.0
 1 O  dxy             1.9       0.0       0.0       0.0       0.0       0.0
 1 O  f0              0.4       2.5       0.0       0.0       0.0       0.0
 1 O  f+1             1.6       0.0       0.0       0.0       0.0       0.0
 1 O  f+2             0.2       4.5       0.0       0.0       0.0       0.0
 1 O  f-2             6.6       0.0       0.0       0.0       0.0       0.0
 1 O  f+3             1.5       2.0       0.0       0.0       0.0       0.0
 1 O  f-3             8.6       0.0       0.0       0.0       0.0       0.0
 2 O  s               1.1       1.1       0.8       0.0      53.6      46.3
 2 O  pz              0.3       0.1       0.0       0.0       0.0       0.0
 2 O  px              1.9       0.4       0.3       0.0       0.0       0.0
 2 O  py              0.4       1.4       0.3       0.0       0.0       0.0
 2 O  dz2             5.4       7.0       0.0       0.0       0.0       0.0
 2 O  dxz             0.3       0.0       0.0       0.0       0.0       0.0
 2 O  dyz             0.3       0.2       0.0       0.0       0.0       0.0
 2 O  dx2y2           1.5       1.3       0.0       0.0       0.0       0.0
 2 O  dxy            18.2      17.8       0.1       0.0       0.0       0.0
 2 O  f0              1.3       0.2       0.0       0.0       0.0       0.0
 2 O  f+1             2.1       0.7       0.0       0.0       0.0       0.0
 2 O  f-1             0.3       2.2       0.0       0.0       0.0       0.0
 2 O  f+2             0.3       0.4       0.0       0.0       0.0       0.0
 2 O  f-2             2.7       0.3       0.0       0.0       0.0       0.0
 2 O  f+3             0.1       4.6       0.0       0.0       0.0       0.0
 2 O  f-3            11.6       0.0       0.0       0.0       0.0       0.0
 3 H  s               0.0       0.2       0.3       0.0       0.0       0.0
 4 Ag s               0.0       0.0       0.0      99.9       0.0       0.0

                    138   
                 110.85622
                   0.00000
                  --------
 4 Ag s             100.0


                      *****************************
                      * MAYER POPULATION ANALYSIS *
                      *****************************

  NA   - Mulliken gross atomic population
  ZA   - Total nuclear charge
  QA   - Mulliken gross atomic charge
  VA   - Mayer's total valence
  BVA  - Mayer's bonded valence
  FA   - Mayer's free valence

  ATOM       NA         ZA         QA         VA         BVA        FA
  0 C      5.6835     6.0000     0.3165     4.1006     4.1006     0.0000
  1 O      8.4410     8.0000    -0.4410     1.9619     1.9619     0.0000
  2 O      8.4350     8.0000    -0.4350     1.9744     1.9744     0.0000
  3 H      0.9089     1.0000     0.0911     0.9807     0.9807     0.0000
  4 Ag    18.5316    19.0000     0.4684     0.8341     0.8341     0.0000

  Mayer bond orders larger than 0.100000
B(  0-C ,  1-O ) :   1.5406 B(  0-C ,  2-O ) :   1.5653 B(  0-C ,  3-H ) :   0.9584 
B(  1-O ,  4-Ag) :   0.3786 B(  2-O ,  4-Ag) :   0.3745 

-------
TIMINGS
-------

Total SCF time: 0 days 0 hours 0 min 3 sec 

Total time                  ....       3.981 sec
Sum of individual times     ....       3.821 sec  ( 96.0%)

Fock matrix formation       ....       3.498 sec  ( 87.9%)
  XC integration            ....       0.386 sec  ( 11.0% of F)
    Basis function eval.    ....       0.121 sec  ( 31.3% of XC)
    Density eval.           ....       0.076 sec  ( 19.6% of XC)
    XC-Functional eval.     ....       0.034 sec  (  8.7% of XC)
    XC-Potential eval.      ....       0.142 sec  ( 36.7% of XC)
Diagonalization             ....       0.004 sec  (  0.1%)
Density matrix formation    ....       0.000 sec  (  0.0%)
Population analysis         ....       0.017 sec  (  0.4%)
Initial guess               ....       0.002 sec  (  0.0%)
Orbital Transformation      ....       0.000 sec  (  0.0%)
Orbital Orthonormalization  ....       0.001 sec  (  0.0%)
DIIS solution               ....       0.001 sec  (  0.0%)
Grid generation             ....       0.300 sec  (  7.5%)

-------------------------   --------------------
FINAL SINGLE POINT ENERGY      -336.020169422383
-------------------------   --------------------

Starting the MM part

----------------------------------------------------------------------------
                                     MM                                         
------------------------------------------------------------------------------


Force Field is read from file          ... HCOO-Ag+_mergeFF.ORCAFF.prms
PrintLevel                             ... 1


Do energy and gradient calculation
Coulomb interaction settings:
   Dielectricity constant              ...        1.000
   1-4 scaling factor                  ...        1.000
   Force Shifting (Coulomb Interaction)... YES
       Coulomb CutOff                  ...       12.000 Ang.
   Force Switching (LJ Interaction)    ... YES
       LJ Inner CutOff                 ...       10.000 Ang.
       LJ Outer CutOff                 ...       12.000 Ang.
Do compute NB interaction for all atoms

-------------------------   --------------------
FINAL SINGLE POINT ENERGY (MM)        0.000000000000
-------------------------   --------------------



------------------
CARTESIAN GRADIENT (MM)
------------------
   1   C   :    0.000000000    0.000000000    0.000000000
   2   O   :    0.000000000    0.000000000    0.000000000
   3   O   :    0.000000000    0.000000000    0.000000000
   4   H   :    0.000000000    0.000000000    0.000000000
   5   Ag  :    0.000000000    0.000000000    0.000000000



------------------
CARTESIAN GRADIENT (MM) kcal/mol
------------------
   1   C   :    0.000000000    0.000000000    0.000000000
   2   O   :    0.000000000    0.000000000    0.000000000
   3   O   :    0.000000000    0.000000000    0.000000000
   4   H   :    0.000000000    0.000000000    0.000000000
   5   Ag  :    0.000000000    0.000000000    0.000000000

Norm of the cartesian gradient     ...    0.000000000
RMS gradient                       ...    0.000000000
MAX gradient                       ...    0.000000000
Total MM time               ....       0.001 sec


-------------------------   --------------------
FINAL SINGLE POINT ENERGY (QM/MM)     -336.020169422383
-------------------------   --------------------

                                *** OPTIMIZATION RUN DONE ***

                            ***************************************
                            *     ORCA property calculations      *
                            ***************************************

                                    ---------------------
                                    Active property flags
                                    ---------------------
   (+) Dipole Moment


------------------------------------------------------------------------------
                       ORCA ELECTRIC PROPERTIES CALCULATION
------------------------------------------------------------------------------

Dipole Moment Calculation                       ... on
Quadrupole Moment Calculation                   ... off
Polarizability Calculation                      ... off
GBWName                                         ... HCOO-Ag+.gbw
Electron density file                           ... HCOO-Ag+.scfp
The origin for moment calculation is the CENTER OF MASS  = (-4.824062,  2.112277  1.531525)

-------------
DIPOLE MOMENT
-------------
                                X             Y             Z
Electronic contribution:     13.00279      36.69239      23.71949
Nuclear contribution   :     -3.15290      -8.75990      -5.68010
                        -----------------------------------------
Total Dipole Moment    :      9.84989      27.93249      18.03939
                        -----------------------------------------
Magnitude (a.u.)       :     34.67945
Magnitude (Debye)      :     88.14815



--------------------
Rotational spectrum 
--------------------
 
Rotational constants in cm-1:     0.412584     0.113492     0.089008 
Rotational constants in MHz : 12368.962412  3402.400761  2668.399356 

 Dipole components along the rotational axes: 
x,y,z [a.u.] :    34.677644     0.353359     0.014708 
x,y,z [Debye]:    88.143565     0.898167     0.037386 

 

Timings for individual modules:

Sum of individual times         ...     2199.904 sec (=  36.665 min)
GTO integral calculation        ...       11.408 sec (=   0.190 min)   0.5 %
SCF iterations                  ...     1859.952 sec (=  30.999 min)  84.5 %
SCF Gradient evaluation         ...      327.019 sec (=   5.450 min)  14.9 %
Geometry relaxation             ...        0.853 sec (=   0.014 min)   0.0 %
MM module                       ...        0.673 sec (=   0.011 min)   0.0 %
                             ****ORCA TERMINATED NORMALLY****
TOTAL RUN TIME: 0 days 0 hours 36 minutes 40 seconds 442 msec
