[Molden Format]
[Title]
 Molden file created by orca_2mkl for BaseName=COOH

[Atoms] AU
C    1   6         -5.8010912274        -0.7170280541        -0.2755207044 
O    2   8         -3.7041474904        -0.8467643631         0.7819650512 
O    3   8         -7.3754459110         1.0295839332        -0.3386719303 
H    4   1         -6.4836737928        -2.2233148143        -1.3192124906 
[GTO]
  1 0
s   6 1.0 
    13575.3496820000         0.5435905310
     2035.2333680000         1.0145543947
      463.2256235900         1.7315731970
      131.2001959800         2.6910376290
       42.8530158910         3.6044547126
       15.5841857660         3.7025556986
s   2 1.0 
        6.2067138508         1.8383540830
        2.5764896527         0.5447575605
s   1 1.0 
        0.5769633942         0.4718145038
s   1 1.0 
        0.2297283136         0.2364944676
s   1 1.0 
        0.0951644400         0.1221141848
p   4 1.0 
       34.6972322440         1.3596651507
        7.9582622826         1.4512589486
        2.3780826883         1.2709231419
        0.8143320818         0.8025721189
p   1 1.0 
        0.2888754725         0.3018758868
p   1 1.0 
        0.1005682367         0.0807265016
d   1 1.0 
        1.0970000000         3.3522135855
d   1 1.0 
        0.3180000000         0.3838994974
f   1 1.0 
        0.7610000000         3.0840084332

  2 0
s   6 1.0 
    27032.3826310000         0.8598581479
     4052.3871392000         1.6055305368
      922.3272271000         2.7458778516
      261.2407098900         4.2987674426
       85.3546413510         5.8797663284
       31.0350352450         6.3163983216
s   2 1.0 
       12.2608607280         2.9812147522
        4.9987076005         0.9419559635
s   1 1.0 
        1.1703108158         0.8019291610
s   1 1.0 
        0.4647474099         0.4011648062
s   1 1.0 
        0.1850453636         0.2010799406
p   4 1.0 
       63.2749548010         3.0572017144
       14.6270493790         3.3844839414
        4.4501223456         2.9474262132
        1.5275799647         1.7118271494
p   1 1.0 
        0.5293511794         0.6436057926
p   1 1.0 
        0.1747842127         0.1610897254
d   1 1.0 
        2.3140000000        12.3767310624
d   1 1.0 
        0.6450000000         1.3234257612
f   1 1.0 
        1.4280000000        12.7097950062

  3 0
s   6 1.0 
    27032.3826310000         0.8598581479
     4052.3871392000         1.6055305368
      922.3272271000         2.7458778516
      261.2407098900         4.2987674426
       85.3546413510         5.8797663284
       31.0350352450         6.3163983216
s   2 1.0 
       12.2608607280         2.9812147522
        4.9987076005         0.9419559635
s   1 1.0 
        1.1703108158         0.8019291610
s   1 1.0 
        0.4647474099         0.4011648062
s   1 1.0 
        0.1850453636         0.2010799406
p   4 1.0 
       63.2749548010         3.0572017144
       14.6270493790         3.3844839414
        4.4501223456         2.9474262132
        1.5275799647         1.7118271494
p   1 1.0 
        0.5293511794         0.6436057926
p   1 1.0 
        0.1747842127         0.1610897254
d   1 1.0 
        2.3140000000        12.3767310624
d   1 1.0 
        0.6450000000         1.3234257612
f   1 1.0 
        1.4280000000        12.7097950062

  4 0
s   3 1.0 
       34.0613410000         0.2556299169
        5.1235746000         0.4613599649
        1.1646626000         0.6811214941
s   1 1.0 
        0.3272304100         0.3083545312
s   1 1.0 
        0.1030724100         0.1296483265
p   1 1.0 
        0.8000000000         1.0784563492

[5D]
[7F]
[9G]
[MO]
 Sym=     1a
 Ene= -1.89266559945051E+01
 Spin= Alpha
 Occup= 2.000000
  1      -0.000031297827
  2       0.000200008329
  3      -0.000602831200
  4      -0.002827286879
  5       0.002520980249
  6       0.000279008540
  7      -0.000470390636
  8       0.000246434997
  9       0.003908126247
 10      -0.004700228691
 11       0.002359195108
 12      -0.000722792256
 13       0.002350604738
 14      -0.001292810472
 15       0.000125144692
 16      -0.000142264821
 17       0.000281509298
 18       0.000164420311
 19       0.000278152372
 20       0.000126564563
 21      -0.001395750830
 22       0.001240204656
 23       0.001696568529
 24       0.002272220950
 25      -0.000129584858
 26      -0.000164588866
 27       0.000006334336
 28      -0.000130595974
 29       0.000078622360
 30      -0.000244250513
 31       0.000055239156
 32       0.013588431153
 33       0.019970236589
 34       0.001219633800
 35      -0.002279693013
 36      -0.000382675492
 37      -0.000035318345
 38       0.000011896705
 39      -0.000003627365
 40       0.000836357048
 41      -0.000423033218
 42       0.000167813901
 43       0.000083492223
 44      -0.000860554912
 45       0.000489969824
 46       0.000055089975
 47       0.000030506950
 48       0.000061790158
 49      -0.000031345309
 50      -0.000026492787
 51      -0.000089185428
 52      -0.000205517636
 53      -0.000199399820
 54      -0.000006641373
 55       0.000310524507
 56      -0.000005646903
 57       0.000041347253
 58       0.000002383432
 59       0.000043203909
 60       0.000063548734
 61       0.000001625798
 62       0.000036922963
 63      -0.435171818851
 64      -0.639393410729
 65      -0.033898837988
 66       0.024833090513
 67      -0.008395221827
 68      -0.001003982902
 69       0.001491741719
 70      -0.000771038046
 71       0.002620061962
 72      -0.003858450376
 73       0.001991627118
 74      -0.000441612803
 75       0.000444353950
 76      -0.000216787576
 77       0.000047825041
 78      -0.000124205869
 79       0.000132973201
 80       0.000116705316
 81       0.000219539100
 82      -0.000273575686
 83       0.000508207525
 84      -0.000623369244
 85      -0.000438222616
 86      -0.000933915443
 87      -0.000080903158
 88      -0.000014189147
 89       0.000018532624
 90      -0.000047752982
 91      -0.000107986533
 92       0.000106473901
 93       0.000021008997
 94      -0.000274304567
 95      -0.000901430850
 96       0.000806469280
 97      -0.000056786993
 98      -0.000184787827
 99       0.000111829299
 Sym=     1a
 Ene= -1.89265223088410E+01
 Spin= Alpha
 Occup= 2.000000
  1       0.000033344913
  2      -0.000213018683
  3       0.000639623964
  4       0.003008894838
  5      -0.002684223717
  6       0.000575058288
  7      -0.000066613597
  8      -0.000014414110
  9       0.006013968293
 10      -0.001611094550
 11       0.000379804755
 12      -0.002720278790
 13      -0.000233854241
 14       0.000384812656
 15      -0.000252675957
 16      -0.000002874781
 17      -0.000037312376
 18       0.000374726690
 19      -0.000127510105
 20      -0.001140501348
 21       0.000183440092
 22       0.000894735072
 23       0.002830642094
 24      -0.000995794620
 25      -0.000006525583
 26      -0.000073702297
 27       0.000003947530
 28      -0.000119366326
 29      -0.000281928693
 30       0.000152089313
 31      -0.000108721469
 32       0.435172200432
 33       0.639392649203
 34       0.033889243555
 35      -0.024737621574
 36       0.008436724948
 37      -0.001913967010
 38       0.000404070345
 39      -0.000057398681
 40       0.004912114868
 41      -0.001040526368
 42       0.000149591524
 43      -0.000619286107
 44       0.000295115879
 45      -0.000113524820
 46      -0.000132325124
 47       0.000016261632
 48       0.000043255313
 49       0.000261761629
 50      -0.000102328492
 51       0.000611340327
 52      -0.000065368029
 53      -0.000094540232
 54      -0.001091162531
 55       0.000445849315
 56      -0.000007558535
 57      -0.000112703094
 58       0.000022434682
 59       0.000003815788
 60      -0.000010674554
 61      -0.000116914026
 62       0.000078549100
 63       0.013590358758
 64       0.019963219514
 65       0.000897600370
 66       0.000730616455
 67       0.000908800355
 68       0.000039362511
 69      -0.000067019528
 70       0.000035161997
 71       0.000543139109
 72      -0.000338536062
 73       0.000145924652
 74       0.000986773314
 75       0.000157017786
 76      -0.000181297809
 77      -0.000049000596
 78      -0.000010959171
 79      -0.000090370912
 80      -0.000018118317
 81      -0.000000146467
 82       0.000085345687
 83       0.000146604876
 84       0.000285536903
 85       0.000131943781
 86      -0.000222449956
 87       0.000051997013
 88       0.000037462397
 89       0.000001815913
 90       0.000062521266
 91       0.000001707123
 92       0.000035987023
 93       0.000008535299
 94       0.000291983279
 95       0.000959884590
 96      -0.000858108483
 97       0.000186722322
 98       0.000114483018
 99      -0.000083199693
 Sym=     1a
 Ene= -1.00822436573663E+01
 Spin= Alpha
 Occup= 2.000000
  1       0.467220561364
  2       0.608457736073
  3       0.033476030625
  4      -0.004735536876
  5       0.007393383018
  6       0.000569906890
  7       0.000684456910
  8      -0.000449426461
  9       0.002630904739
 10       0.003151854320
 11      -0.002063630359
 12      -0.002010207742
 13      -0.002406010846
 14       0.001574190449
 15      -0.001521848451
 16       0.000479083592
 17      -0.001283758571
 18       0.000876493560
 19      -0.001497670566
 20      -0.002041959315
 21       0.000902832599
 22      -0.001535505422
 23       0.001297092847
 24      -0.002455193277
 25       0.000386437203
 26      -0.000786831577
 27       0.000030144850
 28       0.000385875999
 29       0.001165073116
 30      -0.002075459726
 31       0.000627886747
 32      -0.000064231108
 33      -0.000245631866
 34       0.002554984363
 35      -0.008150012583
 36      -0.001108326029
 37      -0.000607921183
 38       0.000145859501
 39      -0.000028337132
 40       0.006050232050
 41      -0.001403881984
 42       0.000255029132
 43       0.000026267478
 44       0.000737832830
 45      -0.000428777090
 46      -0.000020566928
 47      -0.000014955781
 48       0.000003712564
 49       0.000043593467
 50       0.000013145896
 51       0.001406345296
 52      -0.000161464879
 53      -0.000006073036
 54      -0.002265270434
 55       0.001024300038
 56      -0.000047168936
 57      -0.000371952887
 58       0.000090962986
 59       0.000081198427
 60       0.000065764586
 61      -0.000454606159
 62       0.000369709385
 63      -0.000064351512
 64      -0.000245752840
 65       0.002555296169
 66      -0.008156563915
 67      -0.001108844227
 68       0.000337609472
 69      -0.000468653069
 70       0.000240100122
 71      -0.003311716777
 72       0.004683367794
 73      -0.002404944123
 74       0.000791456030
 75       0.000240962873
 76      -0.000211382378
 77      -0.000003270918
 78       0.000007662603
 79      -0.000034281282
 80      -0.000036550321
 81      -0.000011203224
 82       0.000743518787
 83      -0.001021166534
 84       0.001453975745
 85       0.000790544721
 86       0.001962873474
 87       0.000246139176
 88       0.000010342211
 89      -0.000076812941
 90       0.000101675156
 91       0.000436971163
 92      -0.000475478609
 93      -0.000094508211
 94      -0.000362905956
 95      -0.000059832377
 96      -0.004102405197
 97      -0.000890931660
 98      -0.001066021608
 99       0.000697514583
 Sym=     1a
 Ene= -8.33627988255363E-01
 Spin= Alpha
 Occup= 2.000000
  1       0.067155172732
  2       0.141652420594
  3      -0.227636868930
  4      -0.153374008838
  5      -0.019605095998
  6      -0.039315271561
  7      -0.047359632975
  8       0.031007787894
  9      -0.013875722957
 10      -0.016126683999
 11       0.010642045178
 12      -0.001624712524
 13      -0.001510168693
 14       0.000952345334
 15       0.009680303788
 16      -0.004145935458
 17       0.007353765110
 18      -0.006069309447
 19       0.011445268500
 20       0.005045347807
 21      -0.002520672836
 22       0.003576312402
 23      -0.003492085724
 24       0.006410636827
 25      -0.001383723725
 26       0.002877197315
 27      -0.000115328334
 28      -0.001402910172
 29      -0.004249286705
 30       0.007578907905
 31      -0.002300799717
 32       0.060510350227
 33       0.142381324335
 34      -0.202900922103
 35      -0.265796726673
 36      -0.083196052129
 37       0.078370723955
 38      -0.019698077238
 39       0.004190560212
 40       0.061053627257
 41      -0.015472736283
 42       0.003366239858
 43       0.004723182353
 44      -0.000804275269
 45       0.000098373971
 46       0.002136753221
 47      -0.000393845963
 48      -0.000155639320
 49      -0.003560557326
 50       0.001831146536
 51       0.005461930861
 52      -0.001071088508
 53      -0.000196499366
 54      -0.008853693539
 55       0.004671476284
 56      -0.000168078291
 57      -0.001391977783
 58       0.000348657913
 59       0.000153493648
 60      -0.000287169856
 61      -0.001250766709
 62       0.001177389971
 63       0.060644742285
 64       0.142700477894
 65      -0.203371078446
 66      -0.266414982218
 67      -0.084424902821
 68      -0.044586053619
 69       0.060311455990
 70      -0.030779148258
 71      -0.035053405570
 72       0.047080863101
 73      -0.024049267042
 74      -0.002313892900
 75       0.003983157499
 76      -0.002083676658
 77       0.001117802817
 78      -0.001735446631
 79       0.002103213727
 80       0.001173327016
 81       0.003291743681
 82       0.002956952894
 83      -0.004345080081
 84       0.005387836091
 85       0.002750216951
 86       0.008286452894
 87       0.001091059461
 88       0.000308618699
 89      -0.000297422563
 90       0.000484465949
 91       0.001337880631
 92      -0.001230505946
 93      -0.000533900672
 94      -0.018728794229
 95      -0.016572984623
 96      -0.000368940702
 97      -0.001796306699
 98      -0.002135872360
 99       0.001396825454
 Sym=     1a
 Ene= -7.49762523674330E-01
 Spin= Alpha
 Occup= 2.000000
  1       0.000057878823
  2       0.000120671855
  3      -0.000358358160
  4       0.000546390413
  5      -0.000321220706
  6      -0.163969999188
  7       0.106547569692
  8      -0.046538466771
  9      -0.062360947957
 10       0.040655135260
 11      -0.017847310155
 12      -0.008148393140
 13       0.005661755185
 14      -0.002485251927
 15       0.003172654409
 16       0.004098985906
 17      -0.006979338525
 18      -0.014598049689
 19      -0.004490440182
 20       0.000370581850
 21       0.000741552858
 22      -0.001134783648
 23      -0.002103653121
 24      -0.000786530877
 25       0.001868240610
 26       0.002432053414
 27      -0.001041388095
 28       0.000214623404
 29       0.002381926381
 30      -0.000161791839
 31      -0.002888046153
 32       0.069258655099
 33       0.163507348735
 34      -0.236174374561
 35      -0.315919819757
 36      -0.119914702843
 37       0.073008796027
 38      -0.006741041998
 39      -0.002806603435
 40       0.061560523575
 41      -0.006737045905
 42      -0.001788122955
 43       0.006786423956
 44      -0.000091993196
 45      -0.000600100048
 46       0.002144146083
 47       0.000103127672
 48      -0.000252824165
 49      -0.003863812787
 50       0.001011408977
 51       0.004738671274
 52      -0.000147833308
 53      -0.001737562742
 54      -0.009715719569
 55       0.002992862228
 56       0.000061732524
 57      -0.001111953195
 58       0.000150925552
 59       0.000098342079
 60       0.000454544475
 61      -0.001728336753
 62       0.000764127885
 63      -0.069138380165
 64      -0.163229641983
 65       0.235901963830
 66       0.314757750987
 67       0.119529904629
 68       0.028818274977
 69      -0.059416435837
 70       0.031712180780
 71       0.025333000760
 72      -0.049480622972
 73       0.026315224002
 74       0.001848064234
 75      -0.005731397293
 76       0.003153448556
 77      -0.000899125724
 78       0.001516713618
 79      -0.002484669243
 80      -0.001891543173
 81      -0.002779084196
 82      -0.001529046942
 83       0.004263924121
 84      -0.005224990147
 85      -0.004888414285
 86      -0.007388611056
 87      -0.000690904459
 88       0.000177550488
 89       0.000089184060
 90      -0.000555556765
 91      -0.001297266550
 92       0.001568133710
 93      -0.000219841489
 94      -0.000030097008
 95       0.000021587574
 96       0.000258874464
 97      -0.002813897104
 98       0.001814797958
 99      -0.000773661758
 Sym=     1a
 Ene= -3.39445717051797E-01
 Spin= Alpha
 Occup= 2.000000
  1       0.063077392028
  2       0.136496398477
  3      -0.231738629522
  4      -0.243117568926
  5      -0.018676554194
  6       0.106753361538
  7       0.127693888413
  8      -0.083614545536
  9       0.078104084985
 10       0.092971726034
 11      -0.060839259325
 12       0.029301421067
 13       0.035120745481
 14      -0.023349126163
 15       0.001970151750
 16       0.002069254522
 17       0.003548866857
 18       0.000153025429
 19      -0.002674076199
 20      -0.003886997780
 21       0.003614605171
 22      -0.001256994268
 23       0.003369168508
 24      -0.008055186131
 25       0.000978415863
 26       0.000095175527
 27       0.000012222087
 28       0.000240872167
 29      -0.001703345471
 30       0.001363439109
 31      -0.000773746265
 32      -0.032532495342
 33      -0.077692583236
 34       0.118151562062
 35       0.164049151336
 36       0.110276263265
 37       0.112818253024
 38       0.038877893951
 39      -0.032829917891
 40       0.087429294962
 41       0.034618355397
 42      -0.028093335399
 43       0.050903557430
 44       0.006674888850
 45      -0.008310254005
 46       0.001331357867
 47       0.001324983817
 48      -0.000177376095
 49      -0.002878639538
 50      -0.001457183126
 51       0.003653167412
 52       0.004200688681
 53      -0.000256526854
 54      -0.007756612842
 55      -0.005021424180
 56       0.000525314835
 57      -0.000730462374
 58      -0.000333604064
 59      -0.000824459386
 60       0.000433790278
 61      -0.001677811685
 62      -0.001079598664
 63      -0.032534490810
 64      -0.077703020478
 65       0.118208014200
 66       0.164004326936
 67       0.110742304441
 68       0.008741262426
 69       0.106601048714
 70      -0.062416893744
 71       0.011908238453
 72       0.083924689442
 73      -0.049653950095
 74      -0.007870045828
 75       0.044546336995
 76      -0.024957367004
 77       0.000120798946
 78      -0.000269069085
 79       0.002503840959
 80       0.002758354539
 81       0.000285949906
 82       0.000203480983
 83      -0.000154753427
 84       0.007278793113
 85       0.007960957618
 86      -0.000297452620
 87       0.000416950515
 88      -0.000311669609
 89       0.000384100811
 90       0.001466088758
 91       0.000442632293
 92      -0.000597482746
 93       0.001653423143
 94      -0.137430480392
 95      -0.184612356808
 96      -0.071415819474
 97      -0.011422325849
 98      -0.013653573017
 99       0.008968963630
 Sym=     1a
 Ene= -2.38148874032539E-01
 Spin= Alpha
 Occup= 2.000000
  1       0.030636292709
  2       0.067060930565
  3      -0.124089785833
  4      -0.093708473185
  5       0.043062043696
  6      -0.136385873927
  7      -0.163385807264
  8       0.106993814818
  9      -0.089943300335
 10      -0.108455943874
 11       0.070929820683
 12      -0.003378275666
 13      -0.005440386171
 14       0.003599627036
 15       0.003081253156
 16      -0.000389528063
 17       0.003020581539
 18      -0.001510222761
 19       0.002027630980
 20      -0.003267991411
 21      -0.000596967119
 22      -0.003690676890
 23       0.001387348945
 24      -0.000504578134
 25      -0.002158650888
 26       0.002404803722
 27      -0.000099458385
 28      -0.001469705773
 29      -0.002134075406
 30       0.005323720996
 31      -0.001275329547
 32      -0.026435772607
 33      -0.063261000908
 34       0.095506808134
 35       0.145231892101
 36       0.113949531157
 37       0.176358029573
 38      -0.152080700250
 39       0.071714698513
 40       0.131695871180
 41      -0.122351798654
 42       0.058722897160
 43       0.089078295794
 44      -0.078683239869
 45       0.037163281830
 46       0.002420042491
 47      -0.002106487105
 48       0.000557601349
 49      -0.002580819002
 50       0.004734322599
 51       0.006033176141
 52      -0.007003725513
 53       0.002313923247
 54      -0.004862469218
 55       0.014619395870
 56      -0.000846640509
 57      -0.001089934056
 58       0.000940386085
 59       0.001453753782
 60      -0.000647529147
 61       0.000051063938
 62       0.003242079022
 63      -0.026468178505
 64      -0.063339862132
 65       0.095637059601
 66       0.145344710642
 67       0.116383176526
 68      -0.217266984836
 69       0.103869313880
 70      -0.040144545424
 71      -0.171592180053
 72       0.074634424032
 73      -0.027529011740
 74      -0.111846286899
 75       0.051530964500
 76      -0.019491320976
 77       0.002177446026
 78      -0.002406733235
 79       0.001091155199
 80      -0.001489095847
 81       0.005065173691
 82       0.006418466471
 83      -0.006466773034
 84       0.001363105120
 85      -0.006800124898
 86       0.014077633208
 87       0.000993244886
 88       0.000611386254
 89      -0.000926088658
 90      -0.001246840522
 91       0.001491487272
 92      -0.001407123401
 93      -0.002816725864
 94       0.071438376105
 95       0.095697588638
 96       0.080297534419
 97       0.004622918442
 98       0.005491628017
 99      -0.003606724707
 Sym=     1a
 Ene= -2.03885383225869E-01
 Spin= Alpha
 Occup= 2.000000
  1      -0.000024524402
  2      -0.000052240652
  3       0.000178449741
  4      -0.000333610703
  5       0.000242953782
  6       0.217299963739
  7      -0.141023938602
  8       0.061786483243
  9       0.107419012747
 10      -0.069665691641
 11       0.030706997655
 12      -0.025351521556
 13       0.016431495168
 14      -0.007207533017
 15      -0.001781727485
 16      -0.002305431116
 17       0.003923436937
 18       0.008174917941
 19       0.002538569482
 20       0.003577430520
 21       0.004496751045
 22      -0.007749029968
 23      -0.016336949498
 24      -0.004998101407
 25      -0.001842844672
 26      -0.002056215123
 27       0.001452940566
 28       0.001261646153
 29      -0.002256171337
 30       0.000826708021
 31       0.004501410833
 32       0.026765780493
 33       0.064028082668
 34      -0.097165409838
 35      -0.139359292910
 36      -0.112573567979
 37      -0.281633702069
 38       0.002811838560
 39       0.024420140877
 40      -0.221792432872
 41       0.004797635826
 42       0.017790760790
 43      -0.152649806436
 44       0.000562406395
 45       0.013802987885
 46      -0.003472292280
 47      -0.000662224497
 48      -0.000063330737
 49       0.005885752452
 50      -0.000769233552
 51      -0.008417864307
 52      -0.001057453490
 53       0.000339688876
 54       0.014599487529
 55      -0.002854663523
 56      -0.000112979449
 57       0.001573759350
 58      -0.000119412269
 59       0.000072634504
 60      -0.000801973104
 61       0.002654950819
 62      -0.000776943498
 63      -0.026724661780
 64      -0.063929759411
 65       0.096979084350
 66       0.139346721580
 67       0.112479940575
 68      -0.085898275044
 69       0.236470400090
 70      -0.128670757381
 71      -0.070332649674
 72       0.185346155102
 73      -0.100632095094
 74      -0.045445441443
 75       0.128370673669
 76      -0.069916695763
 77       0.001513854892
 78      -0.001887486910
 79       0.004378383546
 80       0.003184814505
 81       0.003548118739
 82       0.003588865922
 83      -0.005149380208
 84       0.010209704331
 85       0.007484440013
 86       0.009558565146
 87       0.000889303548
 88      -0.000306831238
 89      -0.000038896081
 90       0.001014505420
 91       0.001859281626
 92      -0.002222194135
 93       0.000691089694
 94      -0.000006546990
 95       0.000022146979
 96      -0.000110395140
 97       0.005792097031
 98      -0.003757789829
 99       0.001628800022
 Sym=     1a
 Ene= -1.89768501497171E-01
 Spin= Alpha
 Occup= 2.000000
  1      -0.000005860402
  2      -0.000013718137
  3       0.000421209792
  4      -0.001737352464
  5       0.002145303113
  6       0.021599200140
  7       0.137429562466
  8       0.237438972201
  9       0.017801412701
 10       0.109211803510
 11       0.190445358513
 12       0.007961870880
 13       0.057131919879
 14       0.100337481009
 15      -0.006305485621
 16       0.004276277949
 17       0.003503541293
 18      -0.002763139269
 19       0.003211501621
 20      -0.003553652684
 21       0.002369696914
 22       0.002139699680
 23      -0.001694974022
 24       0.002517370970
 25      -0.003392566921
 26       0.002007949896
 27      -0.004805441506
 28       0.003587909970
 29      -0.003223863505
 30      -0.002788517705
 31      -0.001051935708
 32      -0.000017751025
 33      -0.000045217185
 34       0.000068692780
 35       0.000252300585
 36       0.000376137022
 37       0.019395625188
 38       0.120699210473
 39       0.208730949533
 40       0.016165830560
 41       0.101513295062
 42       0.175893653758
 43       0.009252660753
 44       0.057088046224
 45       0.098156640181
 46      -0.000299752188
 47      -0.005292006904
 48       0.001032567864
 49      -0.001144707956
 50      -0.002946106724
 51      -0.000798131593
 52      -0.017013939560
 53       0.003224214035
 54      -0.003565419838
 55      -0.009456608188
 56      -0.002274586632
 57       0.000467056100
 58      -0.000092727325
 59       0.002669048952
 60      -0.001218998085
 61      -0.001341137628
 62      -0.001815596507
 63       0.000015825026
 64       0.000054744101
 65      -0.000366011124
 66       0.001276989639
 67      -0.000417962386
 68       0.019226087516
 69       0.120702741344
 70       0.208963776398
 71       0.016485008402
 72       0.101210977929
 73       0.176429310629
 74       0.009247767291
 75       0.056814995178
 76       0.098247412263
 77       0.003674397324
 78       0.003006332734
 79      -0.002866352790
 80       0.002632377146
 81       0.001241723191
 82       0.011899406378
 83       0.009489134047
 84      -0.009417784736
 85       0.008417392380
 86       0.003763585914
 87      -0.000446211917
 88       0.002208224331
 89      -0.002521717173
 90       0.000035290316
 91      -0.001949785267
 92      -0.001730683610
 93       0.000989213801
 94      -0.000021196173
 95      -0.000415319316
 96      -0.001467128431
 97       0.000628890121
 98       0.004223714308
 99       0.007353732719
 Sym=     1a
 Ene= -5.10483298691769E-02
 Spin= Alpha
 Occup= 2.000000
  1      -0.000000094634
  2      -0.000008547280
  3       0.000256276810
  4      -0.001099499917
  5       0.000789595277
  6      -0.000085685413
  7       0.000008181256
  8      -0.000024483919
  9       0.000307978794
 10      -0.000178324626
 11       0.000091798950
 12      -0.000508370122
 13      -0.000805339609
 14       0.000480149382
 15      -0.009871537978
 16      -0.020680715489
 17       0.009802118429
 18      -0.009438825731
 19      -0.010455007207
 20      -0.016338709811
 21      -0.033931050745
 22       0.016006547397
 23      -0.015630372469
 24      -0.016893133344
 25       0.002341861232
 26       0.002272767158
 27      -0.003128464932
 28      -0.003434596196
 29      -0.000930193797
 30      -0.000480169261
 31       0.003659553496
 32       0.000005031618
 33       0.000012699399
 34      -0.000026293291
 35       0.000012210300
 36       0.000158479958
 37      -0.026334532216
 38      -0.166755078123
 39      -0.287396390241
 40      -0.021675416448
 41      -0.137016704944
 42      -0.236233815627
 43      -0.019211140575
 44      -0.121652135854
 45      -0.209731400796
 46       0.000065004150
 47       0.003271071785
 48      -0.000559845266
 49       0.000643780946
 50       0.001835347783
 51      -0.000931897007
 52       0.012736660167
 53      -0.001388885766
 54       0.001792241526
 55       0.007317058705
 56       0.001662594761
 57       0.000065740266
 58      -0.000376876616
 59      -0.002041831600
 60       0.000559290079
 61       0.000692643025
 62       0.001575935090
 63      -0.000002956694
 64      -0.000008398243
 65      -0.000000723396
 66       0.000111609001
 67       0.000715020665
 68       0.027028633078
 69       0.166481833225
 70       0.287391846650
 71       0.022326688773
 72       0.136683262266
 73       0.236417575641
 74       0.019876984076
 75       0.121182801317
 76       0.209428805168
 77       0.002337601320
 78       0.001758940183
 79      -0.001778507970
 80       0.001643288373
 81       0.000697553654
 82       0.009669458869
 83       0.005437961926
 84      -0.007264966265
 85       0.006447602818
 86       0.001795520139
 87       0.000084040157
 88       0.001579688375
 89      -0.001935403454
 90      -0.000468861356
 91      -0.001251872123
 92      -0.001063274072
 93       0.001100733834
 94       0.000041445039
 95      -0.000058506515
 96      -0.000747459777
 97      -0.000005026972
 98       0.000023651963
 99       0.000014716044
 Sym=     1a
 Ene= -3.99166994280775E-02
 Spin= Alpha
 Occup= 2.000000
  1       0.000008520331
  2       0.000018190531
  3       0.000330262059
  4      -0.001370355586
  5       0.002444974421
  6      -0.023038365832
  7       0.014038216115
  8      -0.006033628070
  9       0.035651732521
 10      -0.024058335404
 11       0.010947016398
 12       0.123558288317
 13      -0.079874239429
 14       0.034311785455
 15       0.005240178130
 16       0.006516485578
 17      -0.011317000847
 18      -0.023680454787
 19      -0.006898258571
 20       0.004055011218
 21       0.004548034090
 22      -0.008201335276
 23      -0.017779778411
 24      -0.004629431333
 25      -0.002067725127
 26      -0.001228404903
 27       0.002800109655
 28       0.005464223886
 29      -0.002262302402
 30       0.002936702147
 31       0.009478477567
 32       0.002636571424
 33       0.006741088181