[Molden Format]
[Title]
 Molden file created by orca_2mkl for BaseName=HCOO-Ag+

[Atoms] AU
C    1   6         -5.8010912274        -0.7170280541        -0.2755207044 
O    2   8         -3.7041474904        -0.8467643631         0.7819650512 
O    3   8         -7.3754459110         1.0295839332        -0.3386719303 
H    4   1         -6.4836737928        -2.2233148143        -1.3192124906 
Ag   5  18         -4.4874530535         3.0672850261         2.1479291416 
[GTO]
  1 0
s   6 1.0 
    13575.3496820000         0.5435905310
     2035.2333680000         1.0145543947
      463.2256235900         1.7315731970
      131.2001959800         2.6910376290
       42.8530158910         3.6044547126
       15.5841857660         3.7025556986
s   2 1.0 
        6.2067138508         1.8383540830
        2.5764896527         0.5447575605
s   1 1.0 
        0.5769633942         0.4718145038
s   1 1.0 
        0.2297283136         0.2364944676
s   1 1.0 
        0.0951644400         0.1221141848
p   4 1.0 
       34.6972322440         1.3596651507
        7.9582622826         1.4512589486
        2.3780826883         1.2709231419
        0.8143320818         0.8025721189
p   1 1.0 
        0.2888754725         0.3018758868
p   1 1.0 
        0.1005682367         0.0807265016
d   1 1.0 
        1.0970000000         3.3522135855
d   1 1.0 
        0.3180000000         0.3838994974
f   1 1.0 
        0.7610000000         3.0840084332

  2 0
s   6 1.0 
    27032.3826310000         0.8598581479
     4052.3871392000         1.6055305368
      922.3272271000         2.7458778516
      261.2407098900         4.2987674426
       85.3546413510         5.8797663284
       31.0350352450         6.3163983216
s   2 1.0 
       12.2608607280         2.9812147522
        4.9987076005         0.9419559635
s   1 1.0 
        1.1703108158         0.8019291610
s   1 1.0 
        0.4647474099         0.4011648062
s   1 1.0 
        0.1850453636         0.2010799406
p   4 1.0 
       63.2749548010         3.0572017144
       14.6270493790         3.3844839414
        4.4501223456         2.9474262132
        1.5275799647         1.7118271494
p   1 1.0 
        0.5293511794         0.6436057926
p   1 1.0 
        0.1747842127         0.1610897254
d   1 1.0 
        2.3140000000        12.3767310624
d   1 1.0 
        0.6450000000         1.3234257612
f   1 1.0 
        1.4280000000        12.7097950062

  3 0
s   6 1.0 
    27032.3826310000         0.8598581479
     4052.3871392000         1.6055305368
      922.3272271000         2.7458778516
      261.2407098900         4.2987674426
       85.3546413510         5.8797663284
       31.0350352450         6.3163983216
s   2 1.0 
       12.2608607280         2.9812147522
        4.9987076005         0.9419559635
s   1 1.0 
        1.1703108158         0.8019291610
s   1 1.0 
        0.4647474099         0.4011648062
s   1 1.0 
        0.1850453636         0.2010799406
p   4 1.0 
       63.2749548010         3.0572017144
       14.6270493790         3.3844839414
        4.4501223456         2.9474262132
        1.5275799647         1.7118271494
p   1 1.0 
        0.5293511794         0.6436057926
p   1 1.0 
        0.1747842127         0.1610897254
d   1 1.0 
        2.3140000000        12.3767310624
d   1 1.0 
        0.6450000000         1.3234257612
f   1 1.0 
        1.4280000000        12.7097950062

  4 0
s   3 1.0 
       34.0613410000         0.2556299169
        5.1235746000         0.4613599649
        1.1646626000         0.6811214941
s   1 1.0 
        0.3272304100         0.3083545312
s   1 1.0 
        0.1030724100         0.1296483265
p   1 1.0 
        0.8000000000         1.0784563492

  5 0
s   2 1.0 
       19.0000000000        -5.5744918424
       15.4281999330        10.2449327281
s   1 1.0 
        6.0553507268         2.7511518957
s   1 1.0 
        1.4162368935         0.9252562343
s   1 1.0 
        0.6175863586         0.4965161317
s   1 1.0 
        0.1047419743         0.1312201890
s   1 1.0 
        0.0376851063         0.0609589392
p   4 1.0 
       13.1881801800         2.7578009658
        7.7952789138        -5.2823213825
        2.0351571912         1.9589709180
        0.9809391484         0.7961439746
p   1 1.0 
        0.4445117996         0.5173616168
p   1 1.0 
        0.1300000000         0.1112677429
p   1 1.0 
        0.0412000000         0.0264582800
d   4 1.0 
       25.7843973510         4.8243961623
       11.3966367550        -4.2106135660
        2.7345581361         6.4312805686
        1.1873583605         2.6277204894
d   1 1.0 
        0.4731691057         0.7695710997
d   1 1.0 
        0.1674601799         0.1249727430
f   1 1.0 
        1.3971100000        12.0995420129

[5D]
[7F]
[9G]
[MO]
 Sym=     1a
 Ene= -1.91920135309301E+01
 Spin= Alpha
 Occup= 2.000000
  1      -0.000033251617
  2       0.000210568337
  3      -0.000699820553
  4      -0.001646790045
  5       0.003001099669
  6      -0.000526490587
  7      -0.000012611131
  8      -0.000284119841
  9      -0.005503159104
 10       0.001353568226
 11      -0.002333334170
 12       0.002709701066
 13       0.002022794639
 14       0.002353762528
 15       0.000085388961
 16      -0.000335037879
 17       0.000023256252
 18      -0.000335661482
 19       0.000025413088
 20      -0.000020652000
 21      -0.001975001865
 22       0.000368480915
 23      -0.002380198073
 24      -0.000579402421
 25       0.000100245191
 26       0.000058794357
 27      -0.000154750735
 28       0.000008160956
 29      -0.000130603065
 30      -0.000214146176
 31      -0.000067590667
 32      -0.435388315267
 33      -0.639687935731
 34      -0.034123045909
 35       0.025575385488
 36      -0.010929616872
 37       0.001801172160
 38      -0.000481771013
 39       0.000737719252
 40      -0.004425206537
 41       0.000791461546
 42      -0.001995859237
 43       0.001242862693
 44      -0.001253052620
 45       0.000093884615
 46       0.000022574679
 47      -0.000187373127
 48       0.000047883828
 49      -0.000232759212
 50      -0.000000997435
 51      -0.000159847922
 52       0.000822806032
 53      -0.000188415167
 54       0.000972421965
 55      -0.000066625957
 56       0.000092757902
 57       0.000004825485
 58      -0.000005702804
 59      -0.000118180077
 60       0.000016268759
 61       0.000095817555
 62      -0.000034221471
 63       0.000228486744
 64       0.000364363094
 65       0.000003771059
 66      -0.000970506423
 67      -0.002641642668
 68      -0.000019706741
 69       0.000000320997
 70      -0.000010601788
 71      -0.000644408990
 72       0.000547157746
 73      -0.000098296715
 74      -0.001505252040
 75      -0.000196552379
 76      -0.000891548758
 77       0.000042535648
 78      -0.000030687242
 79      -0.000058159217
 80       0.000040711207
 81       0.000020438351
 82      -0.000046962763
 83       0.000053013492
 84       0.000291323415
 85      -0.000255148654
 86       0.000138990303
 87       0.000008429694
 88      -0.000017793744
 89       0.000034093191
 90       0.000093802605
 91       0.000001032317
 92       0.000006702689
 93      -0.000027622639
 94      -0.000274615515
 95      -0.000297077676
 96       0.002031295328
 97      -0.000188313774
 98       0.000102384982
 99      -0.000055481394
100       0.000006511183
101      -0.000018479132
102       0.000075101003
103      -0.000262738101
104       0.000700855229
105      -0.000382395864
106       0.000012354319
107       0.000024026784
108       0.000017053454
109       0.000004937680
110      -0.000108946569
111      -0.000045474242
112      -0.000067842609
113      -0.000649577435
114      -0.000338101029
115       0.000149037686
116       0.000211109106
117       0.000176312175
118      -0.000028526613
119      -0.000003607560
120       0.000006580271
121      -0.000018089071
122      -0.000046758199
123       0.000040244067
124      -0.000006841421
125       0.000061381568
126      -0.000056356702
127       0.000107364012
128      -0.000238820524
129       0.000164679139
130       0.000235458576
131      -0.000137860686
132      -0.000203639657
133       0.000020933409
134      -0.000004024117
135       0.000003390344
136       0.000012784489
137      -0.000004051346
138       0.000007705307
139      -0.000015097335
 Sym=     1a
 Ene= -1.91867380746216E+01
 Spin= Alpha
 Occup= 2.000000
  1      -0.000034397642
  2       0.000214972033
  3      -0.000638883938
  4      -0.001950569535
  5       0.003923296821
  6       0.000370035642
  7      -0.000471690930
  8      -0.000011016103
  9       0.004622446609
 10      -0.003694300140
 11       0.000816361468
 12      -0.001029196737
 13       0.002361386462
 14       0.000503066321
 15       0.000244255962
 16      -0.000017825937
 17      -0.000008360689
 18       0.000066371159
 19       0.000402478596
 20       0.001185077464
 21       0.000637042859
 22       0.000319628675
 23       0.000698085250
 24       0.002494909634
 25      -0.000009105995
 26      -0.000002918622
 27       0.000061452279
 28       0.000284949971
 29       0.000038626759
 30      -0.000048164296
 31      -0.000126271629
 32      -0.000235630325
 33      -0.000316371580
 34      -0.000069475514
 35      -0.000677704586
 36      -0.002663683392
 37       0.000012795737
 38      -0.000012767369
 39       0.000000868245
 40       0.000673275346
 41      -0.000187393234
 42       0.000276936817
 43       0.000953938558
 44      -0.001267709685
 45      -0.000057321906
 46       0.000024774752
 47      -0.000050284532
 48      -0.000042983377
 49       0.000000158002
 50      -0.000007923321
 51      -0.000011619141
 52       0.000092308075
 53       0.000239705730
 54      -0.000150658469
 55       0.000182757829
 56       0.000052357937
 57       0.000000816839
 58      -0.000039018749
 59      -0.000026120793
 60      -0.000056094220
 61      -0.000033602669
 62       0.000000045359
 63      -0.435384693567
 64      -0.639694566991
 65      -0.034059024752
 66       0.025258647372
 67      -0.010373975832
 68      -0.001528972830
 69       0.001228949200
 70      -0.000270044718
 71       0.003515259001
 72      -0.003327831909
 73       0.000396112055
 74      -0.001414521336
 75       0.000329736386
 76      -0.000613917337
 77       0.000127289756
 78       0.000044559461
 79       0.000042054743
 80       0.000041325679
 81       0.000263824814
 82      -0.000577965791
 83      -0.000096063070
 84      -0.000163920213
 85      -0.000111877645
 86      -0.001130310600
 87      -0.000008207840
 88      -0.000082927897
 89       0.000081266825
 90       0.000015025564
 91      -0.000029433787
 92       0.000102611663
 93       0.000097363285
 94      -0.000192066271
 95      -0.000338440752
 96       0.000377141808
 97      -0.000097875004
 98       0.000137507231
 99       0.000007342648
100       0.000011895871
101      -0.000033292980
102       0.000134299058
103      -0.000366514155
104       0.001049900517
105      -0.000306011978
106       0.000009137726
107       0.000020221663
108       0.000013694350
109      -0.000048921838
110      -0.000025958060
111      -0.000036950875
112      -0.000341060721
113      -0.000772464645
114      -0.000540068914
115      -0.000008432192
116       0.000253188281
117       0.000110422557
118      -0.000004897515
119       0.000030352256
120      -0.000000492748
121       0.000029441199
122       0.000002280389
123       0.000016611098
124      -0.000012730604
125       0.000059434268
126      -0.000067622159
127       0.000063054700
128      -0.000145954867
129       0.000307361613
130       0.000287163195
131      -0.000018102407
132       0.000044583209
133       0.000019441283
134      -0.000011689906
135      -0.000002999572
136       0.000002208831
137      -0.000025080781
138      -0.000001304882
139       0.000008692342
 Sym=     1a
 Ene= -1.03131046024486E+01
 Spin= Alpha
 Occup= 2.000000
  1      -0.467149751288
  2      -0.608201347345
  3      -0.034195619957
  4       0.001487653607
  5      -0.009248796296
  6      -0.000353649052
  7      -0.001013150349
  8      -0.000640381665
  9      -0.000445690707
 10      -0.003050532112
 11      -0.001567623490
 12       0.000616749812
 13       0.001001364918
 14       0.000773340153
 15       0.001456555652
 16      -0.001756715429
 17      -0.000532019764
 18      -0.000795074938
 19       0.001433524451
 20       0.002267490132
 21      -0.002334359047
 22      -0.000513540109
 23      -0.001149109093
 24       0.002602887854
 25       0.000337661253
 26      -0.000568128568
 27       0.000906993752
 28      -0.001477296676
 29       0.000566927300
 30       0.002316015197
 31       0.000604250204
 32       0.000063633013
 33       0.000256242483
 34      -0.002772766956
 35       0.008735317979
 36       0.001960043121
 37       0.000583451647
 38      -0.000054893978
 39       0.000285711949
 40      -0.005972967136
 41       0.000497468205
 42      -0.002953915812
 43      -0.000271343081
 44      -0.000960998974
 45      -0.000577702067
 46      -0.000001759304
 47      -0.000051101282
 48      -0.000009089814
 49      -0.000042637296
 50      -0.000030012973
 51      -0.000591569611
 52       0.002226918735
 53      -0.000174366013
 54       0.002246226464
 55      -0.000228564209
 56       0.000301630317
 57      -0.000008248941
 58       0.000058529646
 59      -0.000537290057
 60       0.000150108394
 61       0.000514628442
 62      -0.000084539988
 63       0.000063498791
 64       0.000258779400
 65      -0.002791033138
 66       0.008938681679
 67       0.002794227092
 68      -0.000477285528
 69       0.000479514285
 70      -0.000041726003
 71       0.004820469835
 72      -0.004905170872
 73       0.000392491984
 74      -0.000124994377
 75      -0.000913865644
 76      -0.000476613883
 77       0.000029744633
 78       0.000014256698
 79      -0.000001301589
 80       0.000025215958
 81       0.000054782669
 82      -0.001562991073
 83       0.000147319121
 84      -0.000254594550
 85      -0.000084663011
 86      -0.002773017229
 87      -0.000080837946
 88      -0.000313229466
 89       0.000296166121
 90      -0.000108354287
 91      -0.000094313597
 92       0.000434735684
 93       0.000465083824
 94       0.001057616402
 95       0.002134144146
 96       0.002778042318
 97       0.000878351725
 98       0.001806747109
 99       0.001283792551
100       0.000007391551
101      -0.000021402508
102       0.000089162597
103      -0.000207635747
104       0.000759754680
105       0.000822245374
106      -0.000010410348
107       0.000004144991
108      -0.000004063675
109       0.000015073383
110      -0.000004679724
111       0.000007668336
112      -0.000150370078
113      -0.000634832336
114      -0.000374293116
115      -0.000206705351
116      -0.000523140050
117      -0.000345843659
118       0.000006054328
119       0.000011189552
120       0.000033857813
121      -0.000020860785
122       0.000036515587
123      -0.000008070264
124      -0.000032519998
125      -0.000067678564
126       0.000032559394
127      -0.000069074694
128      -0.000089634938
129       0.000128646541
130       0.000282107367
131      -0.000176209851
132       0.000070342763
133       0.000004123174
134      -0.000001914845
135       0.000002556995
136       0.000002312993
137       0.000000450479
138       0.000004950435
139      -0.000002323807
 Sym=     1a
 Ene= -3.78694677057820E+00
 Spin= Alpha
 Occup= 2.000000
  1      -0.000017463730
  2      -0.000026472973
  3       0.000019462704
  4       0.000810629822
  5       0.000094454427
  6      -0.000007685184
  7      -0.000031020695
  8      -0.000017916435
  9       0.000086110275
 10       0.000417237878
 11       0.000232510475
 12      -0.000955470228
 13      -0.001986127614
 14      -0.001408716438
 15      -0.000021419311
 16       0.000017528023
 17      -0.000001418828
 18       0.000012857966
 19      -0.000031783488
 20       0.000093444257
 21      -0.000089385767
 22      -0.000052765770
 23      -0.000011482510
 24       0.000096546917
 25      -0.000042085896
 26       0.000010314039
 27       0.000015193901
 28      -0.000054312544
 29       0.000049864830
 30       0.000039117636
 31       0.000018170767
 32      -0.000033800050
 33      -0.000059235668
 34      -0.000107254761
 35       0.000698813262
 36      -0.001124752394
 37      -0.000025128293
 38       0.000070555361
 39       0.000018591145
 40      -0.000012658636
 41       0.000171679910
 42       0.000072569185
 43       0.000255971307
 44      -0.000816738312
 45      -0.000235945235
 46      -0.000008611447
 47       0.000006880885
 48       0.000010632276
 49      -0.000005888949
 50      -0.000005466524
 51      -0.000011237980
 52      -0.000037022386
 53       0.000040736455
 54      -0.000079994079
 55      -0.000007766257
 56      -0.000029775251
 57       0.000004288809
 58      -0.000018164612
 59      -0.000035586877
 60      -0.000012821248
 61      -0.000025439334
 62       0.000037654393
 63      -0.000025531843
 64      -0.000038150797
 65      -0.000145162680
 66       0.000786894268
 67      -0.001479072716
 68       0.000043291219
 69       0.000011082919
 70       0.000028168232
 71       0.000079722457
 72       0.000109822781
 73       0.000094571930
 74      -0.000650190628
 75      -0.000221625963
 76      -0.000453340273
 77      -0.000007272200
 78       0.000008725111
 79       0.000008194932
 80      -0.000001430080
 81      -0.000003924149
 82       0.000032039587
 83       0.000025935362
 84       0.000011299196
 85       0.000023033599
 86       0.000071042117
 87      -0.000025726333
 88       0.000017117595
 89       0.000008261676
 90       0.000012314562
 91       0.000039683363
 92       0.000002004561
 93      -0.000021518064
 94       0.000091330145
 95      -0.000051726898
 96      -0.002063495407
 97       0.000032248211
 98       0.000036284730
 99       0.000032530969
100       0.195723016131
101      -0.707328263612
102       0.923269470067
103       0.394131123591
104       0.010811785238
105      -0.002044101276
106       0.002037120142
107       0.006343235499
108       0.004017437725
109       0.000576605924
110       0.001689992569
111       0.001090542663
112      -0.000712938927
113      -0.002173256330
114      -0.001374118896
115      -0.000028899738
116      -0.000123004502
117      -0.000071637495
118       0.000226215981
119      -0.000222538101
120       0.000167094472
121      -0.000320940866
122       0.000406616229
123       0.000063474878
124      -0.000087079489
125      -0.000015632422
126      -0.000054280065
127       0.000069579100
128      -0.000215629827
129       0.000387369279
130       0.000875700057
131      -0.000544995046
132       0.000334449389
133      -0.000006764189
134       0.000025091739
135      -0.000042894242
136       0.000078551741
137      -0.000034343579
138      -0.000107603968
139      -0.000032049396
 Sym=     1a
 Ene= -2.37528467734881E+00
 Spin= Alpha
 Occup= 2.000000
  1      -0.000004010206
  2      -0.000007840392
  3      -0.000008969982
  4       0.000074712962
  5      -0.000015520757
  6       0.000001514772
  7       0.000004793342
  8       0.000004767328
  9      -0.000018269345
 10      -0.000012831051
 11       0.000060280309
 12      -0.000087934409
 13      -0.000090464925
 14       0.000119611608
 15       0.000002036091
 16       0.000000776832
 17       0.000002779225
 18       0.000002898508
 19      -0.000003660985
 20       0.000071579174
 21       0.000012181852
 22       0.000074855276
 23       0.000012112721
 24      -0.000037140334
 25       0.000002537676
 26       0.000028244763
 27       0.000061807195
 28      -0.000015730474
 29      -0.000016417155
 30      -0.000027429794
 31      -0.000006778290
 32      -0.000005439152
 33      -0.000012535594
 34       0.000018704728
 35      -0.000001352624
 36       0.000004688361
 37      -0.000043078523
 38      -0.000015765224
 39       0.000074783222
 40      -0.000063250903
 41      -0.000051582353
 42       0.000141471688
 43       0.000088771350
 44       0.000076470164
 45      -0.000168188350
 46       0.000007478802
 47      -0.000004549737
 48       0.000010678837
 49       0.000005405536
 50      -0.000006926288
 51       0.000068276794
 52      -0.000039256892
 53       0.000092251593
 54       0.000049566914
 55      -0.000049975392
 56      -0.000013874002
 57      -0.000003356644
 58       0.000034220889
 59      -0.000017087551
 60      -0.000022095822
 61      -0.000013545780
 62      -0.000022168910
 63      -0.000004393176
 64      -0.000010075624
 65       0.000013753128
 66       0.000007295512
 67       0.000001240853
 68      -0.000018432063
 69      -0.000018647652
 70       0.000061844473
 71      -0.000052044723
 72      -0.000037219900
 73       0.000105607250
 74       0.000089015507
 75       0.000073449250
 76      -0.000160802075
 77       0.000012366468
 78       0.000005380282
 79       0.000003349036
 80      -0.000001121909
 81      -0.000006375760
 82       0.000082735859
 83       0.000023848827
 84       0.000029283912
 85      -0.000002963199
 86      -0.000042615802
 87       0.000014131134
 88       0.000029931295
 89       0.000022833010
 90       0.000001314800
 91       0.000001890350
 92      -0.000007097994
 93       0.000013763561
 94      -0.000000933915
 95      -0.000034445244
 96      -0.000014114702
 97       0.000001378517
 98      -0.000000911282
 99      -0.000008328451
100       0.000024737434
101      -0.000089951785
102       0.000135362391
103       0.000021302845
104      -0.000005825238
105       0.000014557947
106      -0.389613631859
107      -0.337873033455
108       0.709606388786
109      -0.069651952096
110      -0.060407006492
111       0.126854695425
112      -0.003311180943
113      -0.002874683640
114       0.006024554771
115       0.000573734785
116       0.000493300181
117      -0.001051817421
118       0.002879417449
119      -0.000064427843
120       0.001814074320
121       0.000776664992
122      -0.001822913321
123       0.001236955246
124      -0.000020421889
125       0.000760781127
126       0.000315360806
127      -0.000773098218
128      -0.000089445701
129       0.000005992108
130      -0.000052737786
131      -0.000028304125
132       0.000057350340
133       0.000127443552
134      -0.000215633890
135       0.000084355844
136      -0.000055281946
137       0.000212839945
138      -0.000216465882
139       0.000044827837
 Sym=     1a
 Ene= -2.37478619657806E+00
 Spin= Alpha
 Occup= 2.000000
  1       0.000237630426
  2       0.000464205520
  3       0.000348030721
  4      -0.003560568976
  5       0.000581580182
  6      -0.000132045938
  7      -0.000327594678
  8      -0.000218720359
  9      -0.000252797552
 10      -0.000583794585
 11      -0.000403699271
 12       0.000660023249
 13       0.001327143256
 14       0.000954990496
 15       0.000069474669
 16      -0.000072227379
 17       0.000017580843
 18      -0.000068812620
 19       0.000101226863
 20       0.000280155498
 21      -0.000690119765
 22      -0.001252533368
 23       0.000641608785
 24      -0.000598609583
 25       0.000147734639
 26      -0.000075906397
 27       0.000061584314
 28      -0.000038489031
 29      -0.000035985892
 30       0.000165769327
 31      -0.000004673110
 32       0.000367710433
 33       0.000839483850
 34      -0.001109215916
 35      -0.000503799373
 36      -0.000575241881
 37       0.000306631045
 38      -0.001062801761
 39      -0.000319408274
 40      -0.000206517197
 41      -0.000842547729
 42      -0.000486626009
 43       0.000153619992
 44      -0.000130258930
 45       0.000020032438
 46       0.000031534434
 47       0.000011417744
 48      -0.000027131991
 49       0.000045207907
 50       0.000041690649
 51       0.000157691475
 52       0.000128795338
 53      -0.000313621829
 54       0.000491096738
 55       0.000122145266
 56       0.000062811620
 57      -0.000010082183
 58       0.000044347142
 59       0.000045894117
 60       0.000035083736
 61       0.000077077370
 62      -0.000068784325
 63       0.000287894163
 64       0.000657837012
 65      -0.000860520128
 66      -0.000551417098
 67      -0.000173447826
 68      -0.000668835734
 69      -0.000368962938
 70      -0.000527567683
 71      -0.000240401444
 72      -0.000567268674
 73      -0.000382862356
 74      -0.000159405544
 75      -0.000006430366
 76      -0.000091759422
 77       0.000004237048
 78      -0.000055265285
 79      -0.000022678852
 80      -0.000031531037
 81      -0.000027758860
 82      -0.000058433926
 83      -0.000226120442
 84      -0.000204628906
 85      -0.000040747544
 86      -0.000318436154
 87       0.000033058388
 88      -0.000039155367
 89      -0.000006502809
 90      -0.000028570625
 91      -0.000073944254
 92       0.000006167522
 93       0.000061080332
 94       0.000041112770
 95       0.001861059828
 96       0.000721990613
 97       0.000092342274
 98       0.000181726493
 99       0.000130521721
100      -0.002074399238
101       0.007540321437
102      -0.011574914622
103      -0.001495620888
104       0.001333393377
105      -0.000969752476
106       0.217125742849
107       0.714635189589
108       0.459502551641
109       0.038837763903
110       0.127890731895
111       0.082212195963
112       0.001839832509
113       0.005874691258
114       0.003809313136
115      -0.000231610038
116      -0.000722169907
117      -0.000478348222
118      -0.000442338465
119       0.001035474697
120       0.003196936393
121      -0.002236078947
122       0.001519540595
123      -0.000272075939
124       0.000535638519
125       0.001299656033
126      -0.000817237102
127       0.000486605859
128       0.000015209949
129      -0.000073893794
130      -0.000196226395
131       0.000124660241
132      -0.000121056708
133       0.000082247727
134      -0.000122928306
135       0.000141439780
136      -0.000239771691
137       0.000043625638
138       0.000355625664
139       0.000128159611
 Sym=     1a
 Ene= -2.37153042550915E+00
 Spin= Alpha
 Occup= 2.000000
  1      -0.000004848530
  2      -0.000004978207
  3      -0.000082375402
  4       0.000331214768
  5       0.000046349081
  6      -0.000119593135
  7       0.000059500566
  8      -0.000037105862
  9      -0.000196157779
 10       0.000256235606
 11       0.000009392661
 12       0.000188488855
 13       0.000004996572
 14       0.000102951285
 15      -0.000000757354
 16       0.000001173819
 17      -0.000006334384
 18       0.000007192411
 19      -0.000004948039
 20      -0.000094115119
 21      -0.000121648943
 22       0.000070060472
 23      -0.000219383253
 24      -0.000162578256
 25       0.000012204065
 26       0.000046130471
 27      -0.000001233955
 28       0.000000684714
 29       0.000079241450
 30       0.000019220404
 31      -0.000096554546
 32       0.000179425751
 33       0.000401331404
 34      -0.000426239536
 35      -0.000484805436
 36      -0.000294515597
 37       0.000018154404
 38      -0.000464273168
 39      -0.000202330640
 40      -0.000064166236
 41      -0.000788392392
 42      -0.000393280356
 43       0.000295288283
 44       0.000209901980
 45       0.000253965366
 46      -0.000007997616
 47       0.000002208911
 48      -0.000014960811
 49       0.000013377305
 50      -0.000022424859
 51       0.000166289687
 52       0.000015511621
 53      -0.000235134453
 54       0.000296456822
 55       0.000143775948
 56       0.000032607055
 57      -0.000012294940
 58       0.000015079553
 59       0.000049153350
 60      -0.000008979754
 61       0.000009653472
 62      -0.000024396978
 63      -0.000159379993
 64      -0.000358136279
 65       0.000404266029
 66       0.000323518864
 67      -0.000046682807
 68       0.000269277907
 69       0.000262764964
 70       0.000265216578
 71       0.000269979821
 72       0.000570397232
 73       0.000404150858
 74      -0.000058614839
 75      -0.000370644892
 76      -0.000199315183
 77       0.000005011885
 78       0.000000158241
 79       0.000012000019
 80      -0.000010169852
 81       0.000015267453
 82      -0.000008591824
 83       0.000249454335
 84       0.000195675064
 85       0.000051090124
 86       0.000204198498
 87      -0.000035504882
 88       0.000011993679
 89       0.000013024773
 90       0.000003853518
 91       0.000039022281
 92       0.000008067218
 93      -0.000003670783
 94       0.000019627878
 95      -0.000020837791
 96       0.000085264069
 97      -0.000069483105
 98       0.000054819878
 99      -0.000012367153
100       0.000034245173
101      -0.000122662884
102       0.000211784659
103      -0.000017909521
104      -0.000052981577
105       0.000003327593
106      -0.755681383885
107       0.380012297291
108      -0.233969624521
109      -0.134649579039
110       0.067725985258
111      -0.041684004802
112      -0.006262824859
113       0.003119849724
114      -0.001953090450
115       0.000985190110
116      -0.000474758497
117       0.000314709045
118      -0.000899526897
119      -0.001984187674
120       0.000022377134
121      -0.002225703501
122      -0.002269959412
123      -0.000474695114
124      -0.001126677989
125       0.000033688020
126      -0.001275244896
127      -0.001216184789
128       0.000062194302
129       0.000161304895
130       0.000000665585
131       0.000176854112
132       0.000167552700
133      -0.000172630538
134      -0.000163711957
135       0.000100361421
136       0.000168306224
137      -0.000165091981
138      -0.000049247135
139       0.000322598681
 Sym=     1a
 Ene= -1.09778372254524E+00
 Spin= Alpha
 Occup= 2.000000
  1       0.066147354788
  2       0.139291242211
  3      -0.219297418671
  4      -0.154775220573
  5      -0.003494234107
  6      -0.019993258044
  7      -0.057113727258
  8      -0.035984625544
  9      -0.007508877731
 10      -0.026388747676
 11      -0.015844162421
 12       0.004764540058
 13       0.009584887267
 14       0.006865540407