
                                 *****************
                                 * O   R   C   A *
                                 *****************

           --- An Ab Initio, DFT and Semiempirical electronic structure package ---

                  #######################################################
                  #                        -***-                        #
                  #          Department of theory and spectroscopy      #
                  #               Directorship: Frank Neese             #
                  #        Max Planck Institute fuer Kohlenforschung    #
                  #                Kaiser Wilhelm Platz 1               #
                  #                 D-45470 Muelheim/Ruhr               #
                  #                      Germany                        #
                  #                                                     #
                  #                  All rights reserved                #
                  #                        -***-                        #
                  #######################################################


                         Program Version 4.2.1 -  RELEASE  -


 With contributions from (in alphabetic order):
   Daniel Aravena         : Magnetic Suceptibility
   Michael Atanasov       : Ab Initio Ligand Field Theory (pilot matlab implementation)
   Alexander A. Auer      : GIAO ZORA, VPT2
   Ute Becker             : Parallelization
   Giovanni Bistoni       : ED, misc. LED, open-shell LED, HFLD
   Martin Brehm           : Molecular dynamics
   Dmytro Bykov           : SCF Hessian
   Vijay G. Chilkuri      : MRCI spin determinant printing, contributions to CSF-ICE
   Dipayan Datta          : RHF DLPNO-CCSD density
   Achintya Kumar Dutta   : EOM-CC, STEOM-CC
   Dmitry Ganyushin       : Spin-Orbit,Spin-Spin,Magnetic field MRCI
   Miquel Garcia          : C-PCM Hessian, Gaussian charge scheme
   Yang Guo               : DLPNO-NEVPT2, CIM, IAO-localization
   Andreas Hansen         : Spin unrestricted coupled pair/coupled cluster methods
   Benjamin Helmich-Paris : CASSCF linear response (MC-RPA)
   Lee Huntington         : MR-EOM, pCC
   Robert Izsak           : Overlap fitted RIJCOSX, COSX-SCS-MP3, EOM
   Christian Kollmar      : KDIIS, OOCD, Brueckner-CCSD(T), CCSD density
   Simone Kossmann        : Meta GGA functionals, TD-DFT gradient, OOMP2, MP2 Hessian
   Martin Krupicka        : AUTO-CI
   Lucas Lang             : DCDCAS
   Dagmar Lenk            : GEPOL surface, SMD
   Dimitrios Liakos       : Extrapolation schemes; Compound Job, initial MDCI parallelization
   Dimitrios Manganas     : Further ROCIS development; embedding schemes
   Dimitrios Pantazis     : SARC Basis sets
   Taras Petrenko         : DFT Hessian,TD-DFT gradient, ASA, ECA, R-Raman, ABS, FL, XAS/XES, NRVS
   Peter Pinski           : DLPNO-MP2, DLPNO-MP2 Gradient
   Christoph Reimann      : Effective Core Potentials
   Marius Retegan         : Local ZFS, SOC
   Christoph Riplinger    : Optimizer, TS searches, QM/MM, DLPNO-CCSD(T), (RO)-DLPNO pert. Triples
   Tobias Risthaus        : Range-separated hybrids, TD-DFT gradient, RPA, STAB
   Michael Roemelt        : Original ROCIS implementation
   Masaaki Saitow         : Open-shell DLPNO-CCSD energy and density
   Barbara Sandhoefer     : DKH picture change effects
   Avijit Sen             : IP-ROCIS
   Kantharuban Sivalingam : CASSCF convergence, NEVPT2, FIC-MRCI
   Bernardo de Souza      : ESD, SOC TD-DFT
   Georgi Stoychev        : AutoAux, RI-MP2 NMR
   Willem Van den Heuvel  : Paramagnetic NMR
   Boris Wezisla          : Elementary symmetry handling
   Frank Wennmohs         : Technical directorship


 We gratefully acknowledge several colleagues who have allowed us to
 interface, adapt or use parts of their codes:
   Stefan Grimme, W. Hujo, H. Kruse,             : VdW corrections, initial TS optimization,
                  C. Bannwarth                     DFT functionals, gCP, sTDA/sTD-DF
   Ed Valeev, F. Pavosevic, A. Kumar             : LibInt (2-el integral package), F12 methods
   Garnet Chan, S. Sharma, J. Yang, R. Olivares  : DMRG
   Ulf Ekstrom                                   : XCFun DFT Library
   Mihaly Kallay                                 : mrcc  (arbitrary order and MRCC methods)
   Andreas Klamt, Michael Diedenhofen            : otool_cosmo (COSMO solvation model)
   Jiri Pittner, Ondrej Demel                    : Mk-CCSD
   Frank Weinhold                                : gennbo (NPA and NBO analysis)
   Christopher J. Cramer and Donald G. Truhlar   : smd solvation model
   Lars Goerigk                                  : TD-DFT with DH, B97 family of functionals
   V. Asgeirsson, H. Jonsson                     : NEB implementation
   FAccTs GmbH                                   : IRC, NEB, NEB-TS, Multilevel, MM, QM/MM, CI optimization
   S Lehtola, MJT Oliveira, MAL Marques          : LibXC Library


 Your calculation uses the libint2 library for the computation of 2-el integrals
 For citations please refer to: http://libint.valeyev.net

 Your ORCA version has been built with support for libXC version: 4.2.3
 For citations please refer to: https://tddft.org/programs/libxc/

 This ORCA versions uses:
   CBLAS   interface :  Fast vector & matrix operations
   LAPACKE interface :  Fast linear algebra routines
   SCALAPACK package :  Parallel linear algebra routines


----- Orbital basis set information -----
Your calculation utilizes the basis: def2-TZVP
   F. Weigend and R. Ahlrichs, Phys. Chem. Chem. Phys. 7, 3297 (2005).

cite the ECPs for Ag [Def2-ECP] as follows:
Ce-Yb(ecp-28): M. Dolg, H. Stoll, H.Preuss, J. Chem. Phys., 1989, 90, 1730-1734.
Y-Cd(ecp-28), Hf-Hg(ecp-46): D. Andrae,U. Haeussermann, M. Dolg, H. Stoll, H. Preuss, Theor. Chim. Acta, 1990, 77, 123-141.
In-Sb(ecp-28), Tl-Bi(ecp-46): B. Metz, H. Stoll, M. Dolg, J. Chem. Phys., 2000, 113, 2563-2569.
Te-Xe(ecp-28), Po-Rn(ecp-46): K. A. Peterson, D. Figgen, E. Goll, H. Stoll, M. Dolg, J. Chem. Phys., 2003, 119, 11113-11123.
Rb(ecp-28), Cs(ecp-46): T. Leininger, A. Nicklass, W. Kuechle, H. Stoll, M. Dolg, A. Bergner, Chem. Phys. Lett., 1996, 255, 274-280.
Sr(ecp-28), Ba(ecp-46): M. Kaupp, P. V. Schleyer, H. Stoll and H. Preuss, J. Chem. Phys., 1991, 94, 1360-1366.
La(ecp-46): M. Dolg, H. Stoll, A. Savin, H. Preuss, Theor. Chim. Acta, 1989, 75, 173-194.
Lu(ecp-28): X. Cao, M. Dolg, J. Chem. Phys., 2001, 115, 7348-7355.

ECP parameters for Ag [Def2-ECP] have been obtained from:
TURBOMOLE (7.0.2)

================================================================================
                                        WARNINGS
                       Please study these warnings very carefully!
================================================================================


WARNING: Geometry Optimization
  ===> : Switching off AutoStart
         For restart on a previous wavefunction, please use MOREAD

INFO   : the flag for use of LIBINT has been found!

================================================================================
                                       INPUT FILE
================================================================================
NAME = COO-Ag+.inp
|  1> #
|  2> !OPT def2-tzvp PBE0
|  3> %output
|  4>   Print [P_MOs] 1
|  5> end
|  6> * xyz 0 1
|  7>    C       -3.07698       -0.13403       -0.00566
|  8>    O       -1.85875       -0.18681       -0.02335
|  9>    O       -3.70020        1.05818       -0.04205
| 10>    H       -3.65843       -1.04824        0.03941
| 11>   Ag       -2.65197        2.71946       -0.12383
| 12> *
| 13> 
| 14>                          ****END OF INPUT****
================================================================================

                       *****************************
                       * Geometry Optimization Run *
                       *****************************

Geometry optimization settings:
Update method            Update   .... BFGS
Choice of coordinates    CoordSys .... Z-matrix Internals
Initial Hessian          InHess   .... Almoef's Model

Convergence Tolerances:
Energy Change            TolE     ....  5.0000e-06 Eh
Max. Gradient            TolMAXG  ....  3.0000e-04 Eh/bohr
RMS Gradient             TolRMSG  ....  1.0000e-04 Eh/bohr
Max. Displacement        TolMAXD  ....  4.0000e-03 bohr
RMS Displacement         TolRMSD  ....  2.0000e-03 bohr
Strict Convergence                ....  False
------------------------------------------------------------------------------
                        ORCA OPTIMIZATION COORDINATE SETUP
------------------------------------------------------------------------------

The optimization will be done in new redundant internal coordinates
Making redundant internal coordinates   ...  (new redundants) done
Evaluating the initial hessian          ...  (Almloef) done
Evaluating the coordinates              ...  done
Calculating the B-matrix                .... done
Calculating the G-matrix                .... done
Diagonalizing the G-matrix              .... done
The first mode is                       ....    1
The number of degrees of freedom        ....    9

    -----------------------------------------------------------------
                    Redundant Internal Coordinates


    -----------------------------------------------------------------
         Definition                    Initial Value    Approx d2E/dq
    -----------------------------------------------------------------
      1. B(O   1,C   0)                  1.2195         1.046877   
      2. B(O   2,C   0)                  1.3458         0.658331   
      3. B(H   3,C   0)                  1.0844         0.367602   
      4. B(Ag  4,O   2)                  1.9660         0.682276   
      5. A(O   1,C   0,O   2)          120.0372         0.476360   
      6. A(O   2,C   0,H   3)          119.9788         0.355557   
      7. A(O   1,C   0,H   3)          119.9840         0.385064   
      8. A(C   0,O   2,Ag  4)          120.1845         0.496037   
      9. D(Ag  4,O   2,C   0,H   3)   -179.9995         0.032098   
     10. D(Ag  4,O   2,C   0,O   1)      0.0001         0.032098   
    -----------------------------------------------------------------

Number of atoms                         .... 5
Number of degrees of freedom            .... 10

         *************************************************************
         *                GEOMETRY OPTIMIZATION CYCLE   1            *
         *************************************************************
---------------------------------
CARTESIAN COORDINATES (ANGSTROEM)
---------------------------------
  C     -3.076980   -0.134030   -0.005660
  O     -1.858750   -0.186810   -0.023350
  O     -3.700200    1.058180   -0.042050
  H     -3.658430   -1.048240    0.039410
  Ag    -2.651970    2.719460   -0.123830

----------------------------
CARTESIAN COORDINATES (A.U.)
----------------------------
  NO LB      ZA    FRAG     MASS         X           Y           Z
   0 C     6.0000    0    12.011   -5.814650   -0.253280   -0.010696
   1 O     8.0000    0    15.999   -3.512528   -0.353020   -0.044125
   2 O     8.0000    0    15.999   -6.992365    1.999670   -0.079463
   3 H     1.0000    0     1.008   -6.913431   -1.980887    0.074474
   4 Ag   19.0000*   0   107.870   -5.011497    5.139035   -0.234005
* core charge reduced due to ECP

--------------------------------
INTERNAL COORDINATES (ANGSTROEM)
--------------------------------
 C      0   0   0     0.000000000000     0.00000000     0.00000000
 O      1   0   0     1.219501126445     0.00000000     0.00000000
 O      1   2   0     1.345768213549   120.03723472     0.00000000
 H      1   2   3     1.084387076417   119.98396624   179.99955831
 Ag     3   1   2     1.966043066593   120.18454881     0.00000000

---------------------------
INTERNAL COORDINATES (A.U.)
---------------------------
 C      0   0   0     0.000000000000     0.00000000     0.00000000
 O      1   0   0     2.304523148989     0.00000000     0.00000000
 O      1   2   0     2.543133363345   120.03723472     0.00000000
 H      1   2   3     2.049194597591   119.98396624   179.99955831
 Ag     3   1   2     3.715282963356   120.18454881     0.00000000

---------------------
BASIS SET INFORMATION
---------------------
There are 4 groups of distinct atoms

 Group   1 Type C   : 11s6p2d1f contracted to 5s3p2d1f pattern {62111/411/11/1}
 Group   2 Type O   : 11s6p2d1f contracted to 5s3p2d1f pattern {62111/411/11/1}
 Group   3 Type H   : 5s1p contracted to 3s1p pattern {311/1}
 Group   4 Type Ag  : 7s7p6d1f contracted to 6s4p3d1f pattern {211111/4111/411/1}

Atom   0C    basis set group =>   1
Atom   1O    basis set group =>   2
Atom   2O    basis set group =>   2
Atom   3H    basis set group =>   3
Atom   4Ag   basis set group =>   4
-------------------------
ECP PARAMETER INFORMATION
-------------------------

 Group 1, Type Ag ECP Def2-ECP (replacing 28 core electrons, lmax=3)

Atom   4Ag   ECP group =>   1

------------------------------------------------------------------------------
                           ORCA GTO INTEGRAL CALCULATION
------------------------------------------------------------------------------

                         BASIS SET STATISTICS AND STARTUP INFO

 # of primitive gaussian shells          ...   87
 # of primitive gaussian functions       ...  211
 # of contracted shells                  ...   51
 # of contracted basis functions         ...  139
 Highest angular momentum                ...    3
 Maximum contraction depth               ...    6
 Integral package used                   ... LIBINT
 Integral threshhold            Thresh   ...  2.500e-11
 Primitive cut-off              TCut     ...  2.500e-12


------------------------------ INTEGRAL EVALUATION ----------------------------


 * One electron integrals 

   ECP integrals                         ... done
 Pre-screening matrix                    ... done
 Shell pair data                         ... done (   0.000 sec)

-------------------------------------------------------------------------------
                                 ORCA SCF
-------------------------------------------------------------------------------

------------
SCF SETTINGS
------------
Hamiltonian:
 Density Functional     Method          .... DFT(GTOs)
 Exchange Functional    Exchange        .... PBE
   PBE kappa parameter   XKappa         ....  0.804000
   PBE mue parameter    XMuePBE         ....  0.219520
 Correlation Functional Correlation     .... PBE
   PBE beta parameter  CBetaPBE         ....  0.066725
 LDA part of GGA corr.  LDAOpt          .... PW91-LDA
 Gradients option       PostSCFGGA      .... off
 Hybrid DFT is turned on
   Fraction HF Exchange ScalHFX         ....  0.250000
   Scaling of DF-GGA-X  ScalDFX         ....  0.750000
   Scaling of DF-GGA-C  ScalDFC         ....  1.000000
   Scaling of DF-LDA-C  ScalLDAC        ....  1.000000
   Perturbative correction              ....  0.000000
   Density functional embedding theory  .... OFF
   NL short-range parameter             ....  6.900000


General Settings:
 Integral files         IntName         .... COO-Ag+
 Hartree-Fock type      HFTyp           .... RHF
 Total Charge           Charge          ....    0
 Multiplicity           Mult            ....    1
 Number of Electrons    NEL             ....   42
 Basis Dimension        Dim             ....  139
 Nuclear Repulsion      ENuc            ....    153.0611036096 Eh

Convergence Acceleration:
 DIIS                   CNVDIIS         .... on
   Start iteration      DIISMaxIt       ....    12
   Startup error        DIISStart       ....  0.200000
   # of expansion vecs  DIISMaxEq       ....     5
   Bias factor          DIISBfac        ....   1.050
   Max. coefficient     DIISMaxC        ....  10.000
 Newton-Raphson         CNVNR           .... off
 SOSCF                  CNVSOSCF        .... off
 Level Shifting         CNVShift        .... on
   Level shift para.    LevelShift      ....    0.2500
   Turn off err/grad.   ShiftErr        ....    0.0010
 Zerner damping         CNVZerner       .... off
 Static damping         CNVDamp         .... on
   Fraction old density DampFac         ....    0.7000
   Max. Damping (<1)    DampMax         ....    0.9800
   Min. Damping (>=0)   DampMin         ....    0.0000
   Turn off err/grad.   DampErr         ....    0.1000
 Fernandez-Rico         CNVRico         .... off

SCF Procedure:
 Maximum # iterations   MaxIter         ....   125
 SCF integral mode      SCFMode         .... Direct
   Integral package                     .... LIBINT
 Reset frequency        DirectResetFreq ....    20
 Integral Threshold     Thresh          ....  2.500e-11 Eh
 Primitive CutOff       TCut            ....  2.500e-12 Eh

Convergence Tolerance:
 Convergence Check Mode ConvCheckMode   .... Total+1el-Energy
 Convergence forced     ConvForced      .... 0
 Energy Change          TolE            ....  1.000e-08 Eh
 1-El. energy change                    ....  1.000e-05 Eh
 DIIS Error             TolErr          ....  5.000e-07


Diagonalization of the overlap matrix:
Smallest eigenvalue                        ... 1.135e-03
Time for diagonalization                   ...    0.002 sec
Threshold for overlap eigenvalues          ... 1.000e-08
Number of eigenvalues below threshold      ... 0
Time for construction of square roots      ...    0.001 sec
Total time needed                          ...    0.003 sec

-------------------
DFT GRID GENERATION
-------------------

General Integration Accuracy     IntAcc      ...  4.340
Radial Grid Type                 RadialGrid  ... Gauss-Chebyshev
Angular Grid (max. acc.)         AngularGrid ... Lebedev-110
Angular grid pruning method      GridPruning ... 3 (G Style)
Weight generation scheme         WeightScheme... Becke
Basis function cutoff            BFCut       ...    1.0000e-11
Integration weight cutoff        WCut        ...    1.0000e-14
Grids for H and He will be reduced by one unit

# of grid points (after initial pruning)     ...   9140 (   0.0 sec)
# of grid points (after weights+screening)   ...   8952 (   0.0 sec)
nearest neighbour list constructed           ...    0.0 sec
Grid point re-assignment to atoms done       ...    0.0 sec
Grid point division into batches done        ...    0.0 sec
Reduced shell lists constructed in    0.0 sec

Total number of grid points                  ...     8952
Total number of batches                      ...      142
Average number of points per batch           ...       63
Average number of grid points per atom       ...     1790
Average number of shells per batch           ...    37.14 (72.82%)
Average number of basis functions per batch  ...   105.77 (76.09%)
Average number of large shells per batch     ...    31.30 (84.28%)
Average number of large basis fcns per batch ...    88.01 (83.21%)
Maximum spatial batch extension              ...  48.08, 33.59, 61.51 au
Average spatial batch extension              ...   6.22,  5.14,  7.16 au

Time for grid setup =    0.048 sec

------------------------------
INITIAL GUESS: MODEL POTENTIAL
------------------------------
Loading Hartree-Fock densities                     ... done
  calling /home/ubuntu/orca/orca_4_2_1_linux_x86-64_openmpi314/orca COO-Ag+_atom47.inp > COO-Ag+_atom47.out in order to generate an atomic fitting density for atom 4 (Ag with ECP) on-the-fly... 
    atom 4 (Ag), assumed electronic state with S=2: 1s2 2s2 2p6 3s2 3p6 4s2 3d10 4p6 5s2 4d9           ... done
Calculating cut-offs                               ... done
Setting up the integral package                    ... done
Initializing the effective Hamiltonian             ... done
Starting the Coulomb interaction                   ... done (   0.0 sec)
Reading the grid                                   ... done
Mapping shells                                     ... done
Starting the XC term evaluation                    ... done (   0.1 sec)
  promolecular density results
     # of electrons  =     70.000191113
     EX              =   -165.089175897
     EC              =     -3.257485758
     EX+EC           =   -168.346661655
Transforming the Hamiltonian                       ... done (   0.0 sec)
Diagonalizing the Hamiltonian                      ... done (   0.0 sec)
Back transforming the eigenvectors                 ... done (   0.0 sec)
Now organizing SCF variables                       ... done
                      ------------------
                      INITIAL GUESS DONE (   1.2 sec)
                      ------------------
--------------
SCF ITERATIONS
--------------
ITER       Energy         Delta-E        Max-DP      RMS-DP      [F,P]     Damp
               ***  Starting incremental Fock matrix formation  ***
  0   -335.7599679313   0.000000000000 0.07036888  0.00237271  0.5115403 0.7000
  1   -335.8811549525  -0.121187021198 0.04246015  0.00147313  0.3352014 0.7000
  2   -335.9216215530  -0.040466600504 0.02706428  0.00061407  0.2217573 0.7000
                               ***Turning on DIIS***
  3   -335.9465597594  -0.024938206380 0.01313021  0.00025870  0.1511283 0.7000
  4   -335.9650119095  -0.018452150098 0.00485666  0.00015673  0.1050785 0.7000
  5   -335.9780387984  -0.013026888952 0.00856664  0.00036549  0.0742036 0.0000
  6   -336.0083858710  -0.030347072592 0.00179005  0.00004841  0.0020974 0.0000
  7   -336.0084011635  -0.000015292477 0.00058493  0.00001772  0.0012600 0.0000
  8   -336.0084058546  -0.000004691067 0.00095029  0.00001963  0.0003964 0.0000
  9   -336.0084067096  -0.000000855000 0.00017430  0.00000598  0.0004916 0.0000
 10   -336.0084070357  -0.000000326183 0.00007134  0.00000199  0.0000653 0.0000
 11   -336.0084070413  -0.000000005522 0.00003571  0.00000105  0.0000656 0.0000
 12   -336.0084070506  -0.000000009378 0.00001690  0.00000043  0.0000335 0.0000
 13   -336.0084070518  -0.000000001146 0.00001507  0.00000026  0.0000129 0.0000
 14   -336.0084070521  -0.000000000276 0.00000159  0.00000007  0.0000030 0.0000
 15   -336.0084070524  -0.000000000352 0.00000142  0.00000003  0.0000021 0.0000
                            ***DIIS convergence achieved***

               *****************************************************
               *                     SUCCESS                       *
               *           SCF CONVERGED AFTER  16 CYCLES          *
               *****************************************************

Setting up the final grid:

General Integration Accuracy     IntAcc      ...  4.670
Radial Grid Type                 RadialGrid  ... Gauss-Chebyshev
Angular Grid (max. acc.)         AngularGrid ... Lebedev-302
Angular grid pruning method      GridPruning ... 3 (G Style)
Weight generation scheme         WeightScheme... Becke
Basis function cutoff            BFCut       ...    1.0000e-11
Integration weight cutoff        WCut        ...    1.0000e-14
Grids for H and He will be reduced by one unit

# of grid points (after initial pruning)     ...  32688 (   0.0 sec)
# of grid points (after weights+screening)   ...  31892 (   0.0 sec)
nearest neighbour list constructed           ...    0.0 sec
Grid point re-assignment to atoms done       ...    0.0 sec
Grid point division into batches done        ...    0.1 sec
Reduced shell lists constructed in    0.2 sec

Total number of grid points                  ...    31892
Total number of batches                      ...      501
Average number of points per batch           ...       63
Average number of grid points per atom       ...     6378
Average number of shells per batch           ...    33.99 (66.65%)
Average number of basis functions per batch  ...    96.18 (69.20%)
Average number of large shells per batch     ...    28.10 (82.67%)
Average number of large basis fcns per batch ...    78.35 (81.46%)
Maximum spatial batch extension              ...  49.48, 25.31, 36.77 au
Average spatial batch extension              ...   4.02,  3.47,  4.14 au

Final grid set up in    0.3 sec
Final integration                            ... done (   0.2 sec)
Change in XC energy                          ...    -0.000092559
Integrated number of electrons               ...    41.999990419
Previous integrated no of electrons          ...    41.998821335

----------------
TOTAL SCF ENERGY
----------------

Total Energy       :         -336.00849961 Eh           -9143.25611 eV

Components:
Nuclear Repulsion  :          153.06110361 Eh            4165.00437 eV
Electronic Energy  :         -489.06960322 Eh          -13308.26048 eV
One Electron Energy:         -825.61781970 Eh          -22466.20303 eV
Two Electron Energy:          336.54821648 Eh            9157.94255 eV

Virial components:
Potential Energy   :         -580.69942125 Eh          -15801.63459 eV
Kinetic Energy     :          244.69092164 Eh            6658.37848 eV
Virial Ratio       :            2.37319561


DFT components:
N(Alpha)           :       20.999995209549 electrons
N(Beta)            :       20.999995209549 electrons
N(Total)           :       41.999990419098 electrons
E(X)               :      -26.525880495922 Eh       
E(C)               :       -1.605407691179 Eh       
E(XC)              :      -28.131288187102 Eh       
DFET-embed. en.    :        0.000000000000 Eh       

---------------
SCF CONVERGENCE
---------------

  Last Energy change         ...   -1.7644e-10  Tolerance :   1.0000e-08
  Last MAX-Density change    ...    3.8736e-07  Tolerance :   1.0000e-07
  Last RMS-Density change    ...    1.3027e-08  Tolerance :   5.0000e-09
  Last DIIS Error            ...    9.7585e-07  Tolerance :   5.0000e-07

             **** THE GBW FILE WAS UPDATED (COO-Ag+.gbw) ****
             **** DENSITY FILE WAS UPDATED (COO-Ag+.scfp) ****
             **** ENERGY FILE WAS UPDATED (COO-Ag+.en.tmp) ****
             **** THE GBW FILE WAS UPDATED (COO-Ag+.gbw) ****
             **** DENSITY FILE WAS UPDATED (COO-Ag+.scfp) ****
----------------
ORBITAL ENERGIES
----------------

  NO   OCC          E(Eh)            E(eV) 
   0   2.0000     -19.186310      -522.0860 
   1   2.0000     -19.160665      -521.3882 
   2   2.0000     -10.313984      -280.6578 
   3   2.0000      -3.800576      -103.4189 
   4   2.0000      -2.389268       -65.0153 
   5   2.0000      -2.386120       -64.9296 
   6   2.0000      -2.385261       -64.9062 
   7   2.0000      -1.067836       -29.0573 
   8   2.0000      -0.970057       -26.3966 
   9   2.0000      -0.599786       -16.3210 
  10   2.0000      -0.491420       -13.3722 
  11   2.0000      -0.449200       -12.2234 
  12   2.0000      -0.423593       -11.5265 
  13   2.0000      -0.388047       -10.5593 
  14   2.0000      -0.374347       -10.1865 
  15   2.0000      -0.372718       -10.1422 
  16   2.0000      -0.370585       -10.0841 
  17   2.0000      -0.354433        -9.6446 
  18   2.0000      -0.286634        -7.7997 
  19   2.0000      -0.277680        -7.5561 
  20   2.0000      -0.254967        -6.9380 
  21   0.0000      -0.112795        -3.0693 
  22   0.0000      -0.002514        -0.0684 
  23   0.0000       0.008336         0.2268 
  24   0.0000       0.040416         1.0998 
  25   0.0000       0.054908         1.4941 
  26   0.0000       0.100628         2.7382 
  27   0.0000       0.115644         3.1468 
  28   0.0000       0.190448         5.1823 
  29   0.0000       0.200691         5.4611 
  30   0.0000       0.201589         5.4855 
  31   0.0000       0.228549         6.2191 
  32   0.0000       0.257537         7.0079 
  33   0.0000       0.271140         7.3781 
  34   0.0000       0.369726        10.0608 
  35   0.0000       0.396457        10.7882 
  36   0.0000       0.398818        10.8524 
  37   0.0000       0.405211        11.0263 
  38   0.0000       0.443607        12.0712 
  39   0.0000       0.467382        12.7181 
  40   0.0000       0.473529        12.8854 
  41   0.0000       0.504900        13.7390 
  42   0.0000       0.532766        14.4973 
  43   0.0000       0.540278        14.7017 
  44   0.0000       0.549472        14.9519 
  45   0.0000       0.640723        17.4350 
  46   0.0000       0.649133        17.6638 
  47   0.0000       0.660355        17.9692 
  48   0.0000       0.745517        20.2865 
  49   0.0000       0.767826        20.8936 
  50   0.0000       0.802425        21.8351 
  51   0.0000       0.889738        24.2110 
  52   0.0000       0.924347        25.1528 
  53   0.0000       0.998383        27.1674 
  54   0.0000       1.081591        29.4316 
  55   0.0000       1.207572        32.8597 
  56   0.0000       1.400139        38.0997 
  57   0.0000       1.411792        38.4168 
  58   0.0000       1.420881        38.6641 
  59   0.0000       1.517425        41.2912 
  60   0.0000       1.518811        41.3289 
  61   0.0000       1.551783        42.2262 
  62   0.0000       1.609177        43.7879 
  63   0.0000       1.615294        43.9544 
  64   0.0000       1.698232        46.2112 
  65   0.0000       1.755545        47.7708 
  66   0.0000       1.805044        49.1177 
  67   0.0000       1.831003        49.8241 
  68   0.0000       1.845224        50.2111 
  69   0.0000       1.958268        53.2872 
  70   0.0000       1.983491        53.9735 
  71   0.0000       2.026176        55.1351 
  72   0.0000       2.048895        55.7533 
  73   0.0000       2.077922        56.5431 
  74   0.0000       2.092602        56.9426 
  75   0.0000       2.101259        57.1782 
  76   0.0000       2.145159        58.3727 
  77   0.0000       2.187340        59.5206 
  78   0.0000       2.248802        61.1930 
  79   0.0000       2.303901        62.6923 
  80   0.0000       2.400012        65.3077 
  81   0.0000       2.508714        68.2656 
  82   0.0000       2.566667        69.8426 
  83   0.0000       2.569541        69.9208 
  84   0.0000       2.572551        70.0027 
  85   0.0000       2.572939        70.0132 
  86   0.0000       2.581727        70.2524 
  87   0.0000       2.594843        70.6093 
  88   0.0000       2.631728        71.6130 
  89   0.0000       2.661572        72.4250 
  90   0.0000       2.723830        74.1192 
  91   0.0000       2.733895        74.3931 
  92   0.0000       2.874912        78.2303 
  93   0.0000       2.973269        80.9068 
  94   0.0000       2.976811        81.0031 
  95   0.0000       3.004447        81.7552 
  96   0.0000       3.013797        82.0096 
  97   0.0000       3.130040        85.1727 
  98   0.0000       3.173402        86.3526 
  99   0.0000       3.194702        86.9323 
 100   0.0000       3.235617        88.0456 
 101   0.0000       3.383188        92.0612 
 102   0.0000       3.414233        92.9060 
 103   0.0000       3.441889        93.6586 
 104   0.0000       3.575716        97.3002 
 105   0.0000       3.760446       102.3269 
 106   0.0000       3.818384       103.9035 
 107   0.0000       4.133112       112.4677 
 108   0.0000       4.393402       119.5505 
 109   0.0000       4.473327       121.7254 
 110   0.0000       5.178297       140.9086 
 111   0.0000       5.190817       141.2493 
 112   0.0000       5.204352       141.6176 
 113   0.0000       5.234726       142.4441 
 114   0.0000       5.269506       143.3906 
 115   0.0000       5.465368       148.7202 
 116   0.0000       5.556567       151.2019 
 117   0.0000       5.636229       153.3696 
 118   0.0000       5.732247       155.9824 
 119   0.0000       5.888217       160.2265 
 120   0.0000       6.014867       163.6728 
 121   0.0000       6.122424       166.5996 
 122   0.0000       6.344164       172.6335 
 123   0.0000       6.356442       172.9676 
 124   0.0000       6.427232       174.8939 
 125   0.0000       6.479073       176.3045 
 126   0.0000       6.565514       178.6567 
 127   0.0000       6.646534       180.8614 
 128   0.0000       6.773148       184.3067 
 129   0.0000       6.835674       186.0081 
 130   0.0000       6.886192       187.3828 
 131   0.0000       6.999049       190.4538 
 132   0.0000       7.111433       193.5119 
 133   0.0000       7.143023       194.3715 
 134   0.0000      22.984830       625.4490 
 135   0.0000      33.386957       908.5053 
 136   0.0000      43.690511      1188.8792 
 137   0.0000      43.811904      1192.1825 
 138   0.0000     110.809972      3015.2926 
------------------
MOLECULAR ORBITALS
------------------
                      0         1         2         3         4         5   
                 -19.18631 -19.16067 -10.31398  -3.80058  -2.38927  -2.38612
                   2.00000   2.00000   2.00000   2.00000   2.00000   2.00000
                  --------  --------  --------  --------  --------  --------
  0C   1s         0.000034 -0.000028  0.467209 -0.000001 -0.000053 -0.000000
  0C   2s        -0.000195  0.000188  0.608593 -0.000018 -0.000122  0.000000
  0C   3s        -0.000288 -0.001073  0.033038  0.000268  0.000463  0.000000
  0C   4s         0.003041 -0.001826 -0.006475 -0.000350 -0.001073 -0.000004
  0C   5s        -0.001674  0.003098  0.008073  0.000556 -0.000180 -0.000001
  0C   1pz       -0.000008  0.000013 -0.000042  0.000001 -0.000007  0.000006
  0C   1px       -0.000041 -0.000675  0.000833 -0.000045 -0.000010  0.000000
  0C   1py        0.000233 -0.000043  0.000724  0.000004  0.000191  0.000000
  0C   2pz       -0.000130  0.000054 -0.000094 -0.000018  0.000007  0.000027
  0C   2px       -0.003258 -0.006287  0.005174  0.000727 -0.000223  0.000004
  0C   2py        0.004669  0.001219  0.000253  0.000149 -0.000129 -0.000004
  0C   3pz        0.000128 -0.000116  0.000101  0.000073  0.000037 -0.000158
  0C   3px       -0.000814  0.003071 -0.001363 -0.000834 -0.000710 -0.000001
  0C   3py       -0.002939  0.001698 -0.002027 -0.001534 -0.000680 -0.000006
  0C   1dz2      -0.000289  0.000212 -0.001915 -0.000034 -0.000025  0.000002
  0C   1dxz       0.000011  0.000011 -0.000048 -0.000001  0.000001 -0.000010
  0C   1dyz      -0.000028  0.000001 -0.000093 -0.000002 -0.000006 -0.000017
  0C   1dx2y2    -0.000350 -0.000332  0.000747  0.000014 -0.000106  0.000001
  0C   1dxy      -0.000332  0.000005 -0.000468  0.000007  0.000008 -0.000000
  0C   2dz2      -0.000794  0.000427 -0.002582  0.000282  0.000180 -0.000005
  0C   2dxz       0.000094  0.000069 -0.000076  0.000007  0.000009  0.000111
  0C   2dyz      -0.000078 -0.000088 -0.000078  0.000025 -0.000001  0.000026
  0C   2dx2y2    -0.001572 -0.003070  0.002146  0.000149 -0.000280  0.000003
  0C   2dxy      -0.002332 -0.000192 -0.000814 -0.000027  0.000029  0.000007
  0C   1f0        0.000031 -0.000003  0.000031 -0.000001 -0.000001  0.000007
  0C   1f+1       0.000185  0.000205 -0.000397 -0.000045 -0.000042 -0.000001
  0C   1f-1      -0.000398 -0.000058 -0.000156  0.000029  0.000033  0.000000
  0C   1f+2       0.000025 -0.000003 -0.000033 -0.000002  0.000008 -0.000004
  0C   1f-2       0.000006  0.000030  0.000100 -0.000004  0.000001  0.000023
  0C   1f+3      -0.000125 -0.000413 -0.002542  0.000051  0.000036  0.000001
  0C   1f-3      -0.000060 -0.000071  0.000370  0.000002  0.000199 -0.000001
  1O   1s        -0.000051 -0.435378 -0.000081 -0.000000 -0.000015 -0.000000
  1O   2s        -0.000102 -0.639697 -0.000257 -0.000001 -0.000034 -0.000000
  1O   3s         0.000042 -0.033999  0.002502  0.000001  0.000024  0.000000
  1O   4s         0.000772  0.025001 -0.009186  0.000054  0.000149 -0.000002
  1O   5s         0.001764 -0.009360 -0.002315 -0.000203  0.001105 -0.000002
  1O   1pz       -0.000002 -0.000027  0.000007  0.000000 -0.000002  0.000000
  1O   1px        0.000001  0.002069 -0.000543 -0.000009  0.000019 -0.000000
  1O   1py        0.000060 -0.000163  0.000049 -0.000002  0.000055  0.000000
  1O   2pz        0.000014  0.000067 -0.000094 -0.000003 -0.000002 -0.000065
  1O   2px       -0.000583 -0.004942  0.006681  0.000077 -0.000223 -0.000000
  1O   2py       -0.000115  0.000347 -0.000377  0.000059  0.000148 -0.000003
  1O   3pz       -0.000029  0.000006 -0.000038 -0.000001 -0.000001  0.000035
  1O   3px       -0.000208  0.000893  0.000463  0.000381 -0.000241  0.000001
  1O   3py        0.000841 -0.000519  0.000791 -0.000144  0.000133  0.000001
  1O   1dz2      -0.000085  0.000108  0.000016 -0.000020  0.000001  0.000000
  1O   1dxz      -0.000002  0.000007 -0.000001 -0.000000 -0.000000 -0.000004
  1O   1dyz      -0.000006 -0.000005  0.000001 -0.000001 -0.000000 -0.000003
  1O   1dx2y2    -0.000018 -0.000304  0.000001 -0.000004 -0.000001  0.000000
  1O   1dxy      -0.000006  0.000018  0.000029 -0.000007  0.000005 -0.000000
  1O   2dz2       0.000243 -0.000525  0.001286  0.000091 -0.000031 -0.000001
  1O   2dxz       0.000002 -0.000032  0.000073  0.000002  0.000004  0.000022
  1O   2dyz       0.000023  0.000011 -0.000008  0.000005  0.000001 -0.000000
  1O   2dx2y2     0.000182  0.001167 -0.002420 -0.000018  0.000012  0.000000
  1O   2dxy       0.000049 -0.000038  0.000063  0.000024 -0.000129  0.000001
  1O   1f0       -0.000001 -0.000005  0.000009 -0.000000  0.000002  0.000000
  1O   1f+1      -0.000044  0.000124 -0.000242 -0.000005 -0.000001 -0.000000
  1O   1f-1       0.000025 -0.000000  0.000008  0.000006 -0.000015 -0.000000
  1O   1f+2       0.000000  0.000006 -0.000015 -0.000001 -0.000001 -0.000001
  1O   1f-2      -0.000004  0.000002  0.000010  0.000000 -0.000001  0.000005
  1O   1f+3       0.000058  0.000127 -0.000498 -0.000007 -0.000003  0.000000
  1O   1f-3       0.000040  0.000010  0.000033 -0.000004 -0.000033  0.000000
  2O   1s         0.435412 -0.000057 -0.000028 -0.000126 -0.001113  0.000000
  2O   2s         0.639724 -0.000064 -0.000193 -0.000258 -0.002474  0.000001
  2O   3s         0.033779  0.000082  0.002050 -0.000063  0.002360 -0.000002
  2O   4s        -0.024263 -0.000931 -0.004748  0.001412  0.005348  0.000003
  2O   5s         0.010542 -0.003253  0.001780 -0.001258  0.001272  0.000006
  2O   1pz        0.000015  0.000004  0.000015 -0.000015 -0.000134 -0.000311
  2O   1px        0.001234 -0.000055  0.000284  0.000192  0.001847 -0.000005
  2O   1py       -0.001000 -0.000078 -0.000509  0.000294  0.002667 -0.000013
  2O   2pz       -0.000087 -0.000041 -0.000092 -0.000026 -0.000164 -0.000543
  2O   2px       -0.002556 -0.000266 -0.001733  0.000431  0.002286 -0.000007
  2O   2py        0.003360  0.001149  0.003095  0.000479  0.003279 -0.000025
  2O   3pz       -0.000109  0.000044 -0.000035  0.000046 -0.000020  0.000311
  2O   3px        0.001895 -0.001540  0.001603 -0.000288  0.000577  0.000007
  2O   3py        0.001980 -0.000488  0.000232 -0.001052  0.000319  0.000010
  2O   1dz2      -0.000105  0.000056 -0.000046 -0.000023 -0.000096  0.000001
  2O   1dxz       0.000002  0.000001  0.000004 -0.000003 -0.000012 -0.000013
  2O   1dyz      -0.000014  0.000003 -0.000005 -0.000003 -0.000011 -0.000022
  2O   1dx2y2    -0.000168 -0.000027 -0.000090 -0.000024 -0.000058  0.000001
  2O   1dxy      -0.000178  0.000013 -0.000104  0.000044  0.000141  0.000000
  2O   2dz2       0.000548 -0.000043  0.001057 -0.000257 -0.001081  0.000037
  2O   2dxz      -0.000035 -0.000013 -0.000053 -0.000016 -0.000080 -0.000284
  2O   2dyz       0.000052  0.000006  0.000092 -0.000029 -0.000131 -0.000428
  2O   2dx2y2     0.000783  0.000294  0.001199 -0.000160 -0.000739  0.000012
  2O   2dxy       0.001024  0.000179  0.001619  0.000296  0.001672 -0.000020
  2O   1f0        0.000010 -0.000003  0.000028  0.000006  0.000034  0.000100
  2O   1f+1       0.000059 -0.000034  0.000183 -0.000040 -0.000191  0.000009
  2O   1f-1      -0.000116  0.000043 -0.000370 -0.000051 -0.000284  0.000016
  2O   1f+2       0.000006 -0.000002  0.000020  0.000003  0.000017  0.000043
  2O   1f-2       0.000005  0.000005  0.000033 -0.000008 -0.000042 -0.000118
  2O   1f+3      -0.000159 -0.000086 -0.000608  0.000081  0.000425 -0.000006
  2O   1f-3       0.000047  0.000074  0.000085 -0.000018 -0.000092  0.000000
  3H   1s         0.000234 -0.000306 -0.000702  0.000064  0.000017 -0.000000
  3H   2s         0.000703 -0.000892 -0.001245  0.000316  0.000013 -0.000001
  3H   3s        -0.001739  0.001599 -0.003398 -0.001512 -0.000533  0.000001
  3H   1pz       -0.000007  0.000007  0.000085 -0.000005 -0.000001  0.000025
  3H   1px       -0.000056 -0.000246 -0.001031  0.000054 -0.000000  0.000000
  3H   1py        0.000193 -0.000067 -0.001749  0.000093  0.000015  0.000001
  4Ag  1s        -0.000046  0.000015  0.000010  0.195785  0.002709 -0.000000
  4Ag  2s         0.000123 -0.000041 -0.000027 -0.707577 -0.009887  0.000002
  4Ag  3s        -0.000339  0.000145  0.000063  0.923961  0.015499 -0.000003
  4Ag  4s         0.000485 -0.000278  0.000031  0.393854  0.001546  0.000000
  4Ag  5s        -0.002377  0.000986 -0.000799  0.009586 -0.002881 -0.000002
  4Ag  6s         0.000249 -0.000387 -0.000431 -0.002214  0.001006  0.000000
  4Ag  1pz       -0.000008 -0.000000  0.000004 -0.000430  0.036347 -0.877068
  4Ag  1px        0.000108  0.000022 -0.000054  0.004059 -0.459110 -0.012932
  4Ag  1py        0.000150 -0.000005 -0.000090  0.009282 -0.746785 -0.034738
  4Ag  2pz        0.000011 -0.000001 -0.000010 -0.000111  0.006467 -0.155890
  4Ag  2px       -0.000158 -0.000059  0.000149  0.000910 -0.081777 -0.002299
  4Ag  2py       -0.000219  0.000055  0.000184  0.002457 -0.132847 -0.006175
  4Ag  3pz       -0.000096  0.000040 -0.000033  0.000074  0.000226 -0.007400
  4Ag  3px        0.001329 -0.000458  0.000176 -0.000652 -0.002821 -0.000109
  4Ag  3py        0.001904 -0.000827  0.000783 -0.001636 -0.004686 -0.000292
  4Ag  4pz        0.000009 -0.000012 -0.000017  0.000000 -0.000033  0.001294
  4Ag  4px        0.000046  0.000090  0.000064  0.000027  0.000476  0.000019
  4Ag  4py       -0.000250  0.000283  0.000409 -0.000022  0.000653  0.000051
  4Ag  1dz2       0.000077 -0.000008 -0.000012 -0.000398  0.002868  0.000375
  4Ag  1dxz       0.000007  0.000000 -0.000001 -0.000034  0.000192 -0.002052
  4Ag  1dyz       0.000008 -0.000000 -0.000001 -0.000059  0.000374 -0.004674
  4Ag  1dx2y2     0.000026  0.000005 -0.000010 -0.000508  0.002919  0.000155
  4Ag  1dxy      -0.000131 -0.000010  0.000019  0.000794 -0.004097 -0.000153
  4Ag  2dz2      -0.000198  0.000038  0.000065 -0.000022  0.001367  0.000177
  4Ag  2dxz      -0.000018 -0.000001  0.000005 -0.000009  0.000090 -0.000897
  4Ag  2dyz      -0.000021  0.000002  0.000007 -0.000004  0.000181 -0.002244
  4Ag  2dx2y2    -0.000056  0.000002  0.000019  0.000026  0.001462  0.000075
  4Ag  2dxy       0.000328  0.000058 -0.000095  0.000202 -0.001901 -0.000067
  4Ag  3dz2       0.000575 -0.000326  0.000171 -0.000440  0.000091 -0.000006
  4Ag  3dxz       0.000048 -0.000015  0.000004 -0.000019  0.000013  0.000070
  4Ag  3dyz       0.000066 -0.000035  0.000034 -0.000055  0.000011  0.000070
  4Ag  3dx2y2     0.000292 -0.000239  0.000498 -0.000483 -0.000000 -0.000001
  4Ag  3dxy      -0.000933  0.000240 -0.000188  0.000362 -0.000269  0.000003
  4Ag  1f0       -0.000004 -0.000001  0.000002  0.000003 -0.000030  0.000227
  4Ag  1f+1       0.000024  0.000002 -0.000004 -0.000001  0.000158  0.000025
  4Ag  1f-1       0.000030  0.000013 -0.000019 -0.000028  0.000254  0.000045
  4Ag  1f+2      -0.000002 -0.000001  0.000003  0.000003 -0.000020  0.000218
  4Ag  1f-2       0.000005  0.000001 -0.000002 -0.000003  0.000042 -0.000380
  4Ag  1f+3      -0.000052 -0.000009  0.000033  0.000044 -0.000498 -0.000022
  4Ag  1f-3       0.000013 -0.000003  0.000021 -0.000001  0.000027 -0.000004
                      6         7         8         9        10        11   
                  -2.38526  -1.06784  -0.97006  -0.59979  -0.49142  -0.44920
                   2.00000   2.00000   2.00000   2.00000   2.00000   2.00000
                  --------  --------  --------  --------  --------  --------
  0C   1s        -0.000013 -0.062911 -0.000295  0.068801 -0.007209 -0.024877
  0C   2s        -0.000038 -0.132796 -0.000484  0.148522 -0.015985 -0.054650
  0C   3s        -0.000097  0.213976 -0.003041 -0.246132  0.030252  0.098685
  0C   4s         0.001179  0.147035  0.002987 -0.296899  0.030340  0.096378
  0C   5s         0.000296  0.009076 -0.000233 -0.048387 -0.021551 -0.012419
  0C   1pz       -0.000002 -0.002977  0.001246 -0.006298 -0.010579 -0.003418
  0C   1px       -0.000007  0.079798  0.145432  0.131724  0.011311  0.209294
  0C   1py        0.000053  0.043277 -0.092448  0.107084  0.265000 -0.001337
  0C   2pz       -0.000005 -0.001134  0.000525 -0.004320 -0.006917 -0.002408
  0C   2px        0.000459  0.027822  0.055780  0.090053  0.006639  0.134260
  0C   2py       -0.000046  0.016884 -0.035937  0.070864  0.176812  0.004723
  0C   3pz        0.000015  0.000152 -0.000392 -0.000020 -0.002317  0.000013
  0C   3px       -0.000063 -0.001528  0.011548  0.009529  0.018387  0.000732
  0C   3py       -0.000352 -0.004155  0.005922 -0.000495  0.053602 -0.001357
  0C   1dz2      -0.000043 -0.012324 -0.000299  0.004576 -0.002143 -0.003397
  0C   1dxz       0.000000 -0.000271 -0.000548  0.000122  0.000170 -0.000409
  0C   1dyz      -0.000002 -0.000419  0.000525  0.000493 -0.000135 -0.000055
  0C   1dx2y2    -0.000005  0.008579  0.016781  0.003806 -0.001913  0.006923
  0C   1dxy      -0.000035 -0.005317  0.006807 -0.001555 -0.005094  0.005231
  0C   2dz2      -0.000132 -0.007602 -0.001753  0.004743 -0.005636  0.001471
  0C   2dxz      -0.000011 -0.000157 -0.000220  0.000159 -0.000434 -0.000019
  0C   2dyz       0.000009 -0.000336  0.000009  0.000237 -0.000262 -0.000424
  0C   2dx2y2     0.000426  0.003864  0.002869  0.000037  0.000868 -0.010661
  0C   2dxy      -0.000023 -0.003215  0.002478 -0.000883  0.003601  0.006107
  0C   1f0        0.000001  0.000181 -0.000020  0.000127  0.000246  0.000162
  0C   1f+1      -0.000023 -0.002146 -0.002528 -0.001718  0.000729 -0.003745
  0C   1f-1       0.000001 -0.000905  0.001093 -0.000240 -0.003251 -0.000083
  0C   1f+2      -0.000006 -0.000101 -0.000204  0.000086 -0.000067 -0.000003
  0C   1f-2       0.000000  0.000298 -0.000107 -0.000311  0.000042 -0.000011
  0C   1f+3      -0.000077 -0.008839 -0.000946  0.004905 -0.004105 -0.003317
  0C   1f-3      -0.000072  0.001242 -0.000555  0.000471 -0.003158  0.003022
  1O   1s        -0.000010 -0.069727 -0.059142 -0.031287  0.003973  0.039986
  1O   2s        -0.000020 -0.164175 -0.139722 -0.074727  0.009497  0.095615
  1O   3s         0.000045  0.235559  0.203236  0.113628 -0.013748 -0.143213
  1O   4s        -0.000244  0.302665  0.269840  0.160513 -0.027372 -0.222958
  1O   5s        -0.000898  0.095407  0.093228  0.118903 -0.018919 -0.196511
  1O   1pz       -0.000001  0.001153  0.001344 -0.002943 -0.005485  0.003610
  1O   1px       -0.000017 -0.096846 -0.064059  0.073354 -0.014920 -0.318765
  1O   1py        0.000021  0.010759 -0.007845  0.044762  0.145855  0.038870
  1O   2pz       -0.000007  0.000810  0.001119 -0.002313 -0.004496  0.002648
  1O   2px        0.000304 -0.073037 -0.051729  0.052243 -0.008081 -0.240538
  1O   2py        0.000068  0.009335 -0.007025  0.038545  0.118943  0.031168
  1O   3pz        0.000004  0.000058  0.000133 -0.000990 -0.002073  0.001413
  1O   3px        0.000437 -0.008001 -0.007056  0.022694 -0.007081 -0.127340
  1O   3py       -0.000287  0.002643 -0.000381  0.014898  0.055151  0.015818
  1O   1dz2      -0.000007 -0.002461 -0.001566  0.000930 -0.000206 -0.004608
  1O   1dxz      -0.000000 -0.000115 -0.000123  0.000129  0.000195 -0.000188
  1O   1dyz      -0.000001  0.000042  0.000029  0.000034  0.000067 -0.000020
  1O   1dx2y2    -0.000003  0.004924  0.003612 -0.001542 -0.000088  0.006927
  1O   1dxy      -0.000000 -0.000835  0.000567 -0.001913 -0.005038 -0.001407
  1O   2dz2       0.000054 -0.005757 -0.003044  0.002468 -0.001297 -0.008494
  1O   2dxz       0.000001 -0.000232 -0.000337  0.000324  0.000517 -0.000241
  1O   2dyz       0.000000  0.000072  0.000070  0.000109  0.000104  0.000070
  1O   2dx2y2    -0.000074  0.010826  0.008477 -0.003828 -0.000763  0.013903
  1O   2dxy       0.000033 -0.002831  0.002631 -0.005822 -0.014494 -0.005136
  1O   1f0        0.000000 -0.000036 -0.000039  0.000054  0.000050 -0.000055
  1O   1f+1       0.000001  0.001589  0.000630 -0.000505  0.000252  0.001294
  1O   1f-1      -0.000001 -0.000221  0.000199 -0.000311 -0.000594 -0.000126
  1O   1f+2       0.000001  0.000055  0.000083 -0.000064 -0.000126  0.000037
  1O   1f-2       0.000001 -0.000020 -0.000030 -0.000055 -0.000061 -0.000054
  1O   1f+3      -0.000014  0.001818  0.001736 -0.000515 -0.000426  0.002601
  1O   1f-3       0.000015 -0.000775  0.000828 -0.001487 -0.003503 -0.000924
  2O   1s        -0.000000 -0.051218  0.080572 -0.026824  0.021182  0.008593
  2O   2s        -0.000011 -0.120415  0.190019 -0.063743  0.050354  0.020777
  2O   3s         0.000130  0.169681 -0.269934  0.092877 -0.073330 -0.033673
  2O   4s        -0.000365  0.234638 -0.387626  0.146526 -0.120977 -0.045344
  2O   5s         0.000751  0.082492 -0.160563  0.109352 -0.107762 -0.034858
  2O   1pz        0.000004  0.001036 -0.001216 -0.006565  0.007074 -0.007118
  2O   1px        0.000260  0.038779 -0.031714  0.009109  0.138914  0.131120
  2O   1py       -0.000199 -0.042312  0.043545  0.164977 -0.242833  0.123236
  2O   2pz        0.000008  0.000680 -0.000954 -0.005581  0.006050 -0.006149
  2O   2px        0.000423  0.036670 -0.037035  0.015915  0.110271  0.110599
  2O   2py       -0.000356 -0.032484  0.039458  0.138078 -0.203308  0.109700
  2O   3pz       -0.000032 -0.000045  0.000023 -0.001807  0.002241 -0.003070
  2O   3px        0.000275  0.008569 -0.011457  0.004978  0.057464  0.066238
  2O   3py        0.000660 -0.001213  0.001982  0.044571 -0.088176  0.048729
  2O   1dz2       0.000001 -0.001440  0.001617  0.001404 -0.002750 -0.000070
  2O   1dxz      -0.000000  0.000024  0.000010 -0.000180  0.000264 -0.000106
  2O   1dyz      -0.000001 -0.000096  0.000134  0.000227 -0.000243  0.000070
  2O   1dx2y2     0.000002 -0.001100  0.002079  0.003163 -0.001052  0.002714
  2O   1dxy       0.000016 -0.002330  0.002040  0.001923 -0.005712  0.000130
  2O   2dz2       0.000007 -0.007253  0.009210 -0.000833 -0.003365 -0.003479
  2O   2dxz      -0.000016  0.000136 -0.000194 -0.000300  0.000389 -0.000410
  2O   2dyz       0.000024 -0.000558  0.001017 -0.000101  0.000636  0.000110
  2O   2dx2y2     0.000616 -0.003418  0.010463  0.004126  0.009336  0.010067
  2O   2dxy       0.000148 -0.005540  0.004289  0.008172 -0.020067  0.004334
  2O   1f0        0.000000 -0.000056  0.000065  0.000142 -0.000090  0.000159
  2O   1f+1      -0.000037 -0.001007  0.000757 -0.000417 -0.000909 -0.000970
  2O   1f-1       0.000013  0.000944 -0.000821 -0.001648  0.002169 -0.001095
  2O   1f+2      -0.000008 -0.000023  0.000050  0.000156 -0.000048  0.000161
  2O   1f-2      -0.000002 -0.000107  0.000164 -0.000066 -0.000035 -0.000113
  2O   1f+3      -0.000042  0.001687 -0.002640  0.000111  0.001535  0.000653
  2O   1f-3      -0.000130  0.000285  0.000960  0.002035 -0.000079  0.002259
  3H   1s         0.000007  0.017472 -0.000450 -0.135188 -0.093974 -0.017952
  3H   2s        -0.000061  0.013396 -0.001980 -0.169469 -0.135546 -0.025384
  3H   3s        -0.000313 -0.003245  0.008381 -0.054046 -0.022140 -0.017965
  3H   1pz        0.000001 -0.000111  0.000033  0.000803  0.000554  0.000110
  3H   1px        0.000005  0.002127  0.002110 -0.009426 -0.011151  0.003050
  3H   1py       -0.000039  0.001956 -0.001708 -0.017245 -0.009666 -0.004199
  4Ag  1s         0.000435 -0.003384  0.005161 -0.008648  0.007335 -0.005954
  4Ag  2s        -0.001584  0.012726 -0.019431  0.032884 -0.027931  0.022686
  4Ag  3s         0.002566 -0.023700  0.036705 -0.061806  0.053032 -0.042937
  4Ag  4s         0.000123 -0.001660  0.001795 -0.012098  0.009803 -0.009191
  4Ag  5s        -0.000894  0.011905 -0.017810  0.064499 -0.056773  0.049793
  4Ag  6s         0.000282 -0.000989  0.002425 -0.000554 -0.002789 -0.018952
  4Ag  1pz        0.007175 -0.001094  0.001606 -0.001897  0.001403 -0.001107
  4Ag  1px        0.747971  0.010581 -0.020632  0.025366 -0.033854  0.011913
  4Ag  1py       -0.459616  0.023620 -0.032571  0.038088 -0.021731  0.023646
  4Ag  2pz        0.001268  0.000061 -0.000114  0.000094 -0.000060  0.000055
  4Ag  2px        0.132925 -0.000765  0.001606 -0.002266  0.001960 -0.000508
  4Ag  2py       -0.081501 -0.001186  0.002172 -0.001507  0.000627 -0.001231
  4Ag  3pz        0.000049  0.000137 -0.000152  0.001084 -0.000777  0.000516
  4Ag  3px        0.006492  0.000198  0.001889 -0.011148  0.021271 -0.004291
  4Ag  3py       -0.003645 -0.003887  0.003587 -0.023154  0.011877 -0.011559
  4Ag  4pz       -0.000008  0.000036 -0.000038  0.000113 -0.000213 -0.000408
  4Ag  4px       -0.001099 -0.000252  0.000460  0.000212  0.003143 -0.002509
  4Ag  4py        0.000606 -0.000819  0.000782 -0.003238  0.004256  0.011527
  4Ag  1dz2       0.000425 -0.007879  0.013739 -0.048843  0.073075 -0.090648
  4Ag  1dxz      -0.000167 -0.000465  0.001069 -0.003818  0.009786 -0.005952
  4Ag  1dyz       0.000157 -0.001006  0.001732 -0.005598  0.006539 -0.012614
  4Ag  1dx2y2     0.004214 -0.008110  0.011288 -0.027729 -0.036285 -0.111988
  4Ag  1dxy       0.002877  0.009594 -0.022146  0.074004 -0.182259  0.134397
  4Ag  2dz2       0.000324 -0.005847  0.009943 -0.030386  0.043881 -0.055475
  4Ag  2dxz      -0.000080 -0.000349  0.000783 -0.002446  0.005977 -0.003573
  4Ag  2dyz       0.000075 -0.000752  0.001259 -0.003470  0.003863 -0.007650
  4Ag  2dx2y2     0.001963 -0.006045  0.008123 -0.016304 -0.024203 -0.067576
  4Ag  2dxy       0.001557  0.007251 -0.016258  0.047568 -0.110984  0.080222
  4Ag  3dz2      -0.000003 -0.001131  0.001015 -0.013642  0.018224 -0.020018
  4Ag  3dxz       0.000010  0.000004  0.000064 -0.000869  0.002477 -0.001466
  4Ag  3dyz      -0.000003 -0.000137  0.000134 -0.001522  0.001582 -0.003001
  4Ag  3dx2y2    -0.000172 -0.001860  0.001439 -0.008825 -0.009819 -0.028210
  4Ag  3dxy      -0.000204 -0.000010 -0.001758  0.015965 -0.046560  0.034909
  4Ag  1f0        0.000000 -0.000111  0.000172 -0.000194  0.000121 -0.000069
  4Ag  1f+1      -0.000036  0.000454 -0.000890  0.001086 -0.001156  0.000335
  4Ag  1f-1       0.000019  0.000966 -0.001419  0.001565 -0.000770  0.000587
  4Ag  1f+2      -0.000028 -0.000082  0.000105 -0.000073 -0.000052 -0.000054
  4Ag  1f-2      -0.000011  0.000105 -0.000203  0.000232 -0.000213  0.000073
  4Ag  1f+3      -0.000024 -0.001184  0.002267 -0.002224  0.001620 -0.000846
  4Ag  1f-3      -0.000555 -0.000216 -0.000119  0.000851 -0.002160 -0.000213
                     12        13        14        15        16        17   
                  -0.42359  -0.38805  -0.37435  -0.37272  -0.37059  -0.35443
                   2.00000   2.00000   2.00000   2.00000   2.00000   2.00000
                  --------  --------  --------  --------  --------  --------
  0C   1s        -0.000014  0.001464 -0.000003 -0.001660 -0.000003  0.009552
  0C   2s        -0.000044  0.003421 -0.000008 -0.003576 -0.000004  0.020819
  0C   3s        -0.000023 -0.013022  0.000006  0.005316  0.000029 -0.038131
  0C   4s         0.000557  0.027686  0.000121  0.013158 -0.000037 -0.040719
  0C   5s        -0.000642  0.033497  0.000280 -0.004152  0.000310 -0.004667
  0C   1pz        0.221949  0.003280 -0.102023  0.000186 -0.112479  0.001164
  0C   1px        0.003773 -0.116703 -0.001660 -0.005211 -0.001859  0.093164
  0C   1py        0.008718 -0.033007 -0.003948 -0.000836 -0.004359 -0.071881
  0C   2pz        0.187776  0.001844 -0.087065  0.000129 -0.095784  0.000640
  0C   2px        0.002995 -0.065066 -0.001409  0.003316 -0.001594  0.064067
  0C   2py        0.007833 -0.017025 -0.003398 -0.003395 -0.003809 -0.047812
  0C   3pz        0.071276  0.000279 -0.035495 -0.000015 -0.039377  0.000951
  0C   3px        0.001152  0.006681 -0.000635  0.001177 -0.000683 -0.011807
  0C   3py        0.002708 -0.009954 -0.001375  0.000545 -0.001517 -0.020602
  0C   1dz2      -0.000678  0.001539  0.000169  0.000005  0.000202 -0.000729
  0C   1dxz       0.005568  0.000010 -0.006320 -0.000072 -0.005931 -0.000011
  0C   1dyz       0.007242 -0.000456  0.000033 -0.000025 -0.000507  0.000327
  0C   1dx2y2    -0.000200 -0.011931 -0.000107  0.000152 -0.000081  0.007956
  0C   1dxy       0.000294  0.005897 -0.000250  0.001885 -0.000235 -0.003825
  0C   2dz2      -0.001076 -0.002190  0.000188 -0.000400  0.000184 -0.001901
  0C   2dxz       0.006595 -0.000294 -0.010380 -0.000222 -0.008924  0.000311
  0C   2dyz       0.011693 -0.000553  0.001627 -0.000027  0.001425  0.000258
  0C   2dx2y2    -0.000415 -0.007646 -0.000231  0.002047 -0.000215  0.007050
  0C   2dxy       0.000151  0.009146 -0.000285  0.004785 -0.000212 -0.011678
  0C   1f0       -0.006872 -0.000007  0.002464  0.000016  0.002791 -0.000005
  0C   1f+1      -0.000136  0.001033  0.000163 -0.000332  0.000136 -0.001492
  0C   1f-1      -0.000545 -0.000506  0.000108 -0.000024  0.000137  0.000915
  0C   1f+2       0.001287  0.000177 -0.002019 -0.000027 -0.001930 -0.000076
  0C   1f-2      -0.002796 -0.000016 -0.000038 -0.000034  0.000569 -0.000029
  0C   1f+3      -0.000228  0.001784  0.000035  0.000093  0.000077 -0.000161
  0C   1f-3       0.000016  0.001641  0.000085 -0.000504  0.000072  0.000292
  1O   1s         0.000022 -0.008417  0.000002  0.001445 -0.000002  0.005429
  1O   2s         0.000051 -0.020029  0.000005  0.003467 -0.000003  0.012911
  1O   3s        -0.000028  0.028190 -0.000024 -0.005171 -0.000022 -0.017638
  1O   4s        -0.000361  0.053683  0.000075 -0.009694  0.000147 -0.038178
  1O   5s         0.000290  0.033348 -0.000180 -0.011057 -0.000143 -0.033854
  1O   1pz        0.201343 -0.002444 -0.137683 -0.000805 -0.140528  0.004109
  1O   1px        0.003009  0.157513 -0.002239  0.000155 -0.002234 -0.103193
  1O   1py        0.007884  0.000083 -0.005312  0.022916 -0.005439 -0.067668
  1O   2pz        0.168882 -0.001903 -0.115216 -0.000717 -0.117972  0.003220
  1O   2px        0.002592  0.123305 -0.001882  0.002409 -0.001916 -0.077097
  1O   2py        0.006656 -0.000466 -0.004474  0.019346 -0.004591 -0.054796
  1O   3pz        0.086232 -0.001226 -0.068163 -0.000437 -0.067407  0.001963
  1O   3px        0.001173  0.077954 -0.001036  0.004135 -0.001017 -0.045484
  1O   3py        0.003428  0.001070 -0.002650  0.010644 -0.002621 -0.034420
  1O   1dz2       0.000121  0.001835 -0.000077 -0.000103 -0.000086 -0.001326
  1O   1dxz      -0.005697  0.000091  0.003231  0.000009  0.003382 -0.000133
  1O   1dyz       0.000467 -0.000022 -0.000157 -0.000006 -0.000086 -0.000035
  1O   1dx2y2    -0.000108 -0.003592  0.000060 -0.000107  0.000059  0.002147
  1O   1dxy      -0.000213  0.000407  0.000120 -0.000319  0.000128  0.001663
  1O   2dz2       0.000365  0.004009 -0.000227  0.000070 -0.000297 -0.001637
  1O   2dxz      -0.017110  0.000177  0.009955  0.000026  0.010597 -0.000267
  1O   2dyz       0.002045 -0.000104 -0.001007 -0.000037 -0.000258 -0.000039
  1O   2dx2y2    -0.000349 -0.008620  0.000194 -0.001177  0.000180  0.003469
  1O   2dxy      -0.000679  0.001746  0.000399 -0.000354  0.000431  0.004755
  1O   1f0       -0.001786  0.000035  0.000971  0.000006  0.000990 -0.000034
  1O   1f+1      -0.000108 -0.000536  0.000074 -0.000046  0.000078  0.000211
  1O   1f-1       0.000030 -0.000054 -0.000021 -0.000037 -0.000030  0.000204
  1O   1f+2       0.002977 -0.000025 -0.001758 -0.000004 -0.001924  0.000071
  1O   1f-2      -0.000553  0.000035  0.000122 -0.000005  0.000150  0.000009
  1O   1f+3      -0.000096 -0.001499  0.000046 -0.000061  0.000051  0.000935
  1O   1f-3      -0.000138  0.000232  0.000085 -0.000133  0.000091  0.001378
  2O   1s         0.000001  0.011507  0.000004  0.001406  0.000007 -0.019993
  2O   2s        -0.000018  0.027710  0.000010  0.003391  0.000020 -0.048018
  2O   3s         0.000236 -0.045033 -0.000030 -0.005607 -0.000062  0.076155
  2O   4s        -0.000698 -0.051445  0.000064 -0.006010  0.000103  0.096104
  2O   5s         0.000166 -0.089584 -0.000175 -0.005449 -0.000134  0.155539
  2O   1pz        0.243349 -0.003175 -0.001633 -0.000144 -0.027648 -0.000438
  2O   1px        0.003800  0.141249 -0.000033 -0.000659 -0.000378 -0.142228
  2O   1py        0.009413  0.022781 -0.000076  0.003940 -0.001081  0.072817
  2O   2pz        0.210402 -0.002796 -0.000874 -0.000076 -0.023252 -0.000366
  2O   2px        0.003299  0.121447 -0.000035 -0.000575 -0.000320 -0.116590
  2O   2py        0.008455  0.023167 -0.000080  0.002121 -0.000982  0.058531
  2O   3pz        0.117321 -0.001205 -0.001542  0.000188 -0.015006 -0.001470
  2O   3px        0.001766  0.059872 -0.000016  0.000574 -0.000187 -0.065170
  2O   3py        0.004650  0.005703  0.000027 -0.004891 -0.000509  0.068006
  2O   1dz2       0.000171 -0.001402 -0.000129 -0.000307 -0.000124  0.002600
  2O   1dxz       0.002621 -0.000118 -0.000159 -0.000008 -0.000052 -0.000041
  2O   1dyz      -0.002965 -0.000159  0.001914 -0.000022  0.001834  0.000315
  2O   1dx2y2     0.000116  0.000544 -0.000085 -0.000103 -0.000070  0.002388
  2O   1dxy      -0.000045  0.001264  0.000016 -0.000052  0.000029  0.001383
  2O   2dz2      -0.000021 -0.003407 -0.000499 -0.002190 -0.000478  0.005299
  2O   2dxz       0.014818 -0.000503 -0.000866  0.000017  0.000313 -0.000108
  2O   2dyz      -0.005546 -0.000035  0.007901 -0.000163  0.006838  0.000295
  2O   2dx2y2     0.000546  0.006589 -0.000320 -0.000723 -0.000274  0.003320
  2O   2dxy       0.000640  0.007655  0.000103 -0.001578  0.000114  0.006710
  2O   1f0       -0.003131  0.000102 -0.000032  0.000040  0.000180 -0.000027
  2O   1f+1       0.000144 -0.000640 -0.000049 -0.000273 -0.000101  0.000476
  2O   1f-1      -0.000441 -0.000432 -0.000068 -0.000314  0.000015 -0.000434
  2O   1f+2      -0.002062 -0.000013 -0.000367  0.000013  0.000529 -0.000061
  2O   1f-2      -0.001300 -0.000142  0.001094 -0.000015  0.001420  0.000106
  2O   1f+3      -0.000073  0.000877  0.000059 -0.000218  0.000063 -0.001946
  2O   1f-3       0.000158 -0.001316 -0.000002  0.000190 -0.000057 -0.000434
  3H   1s        -0.000062  0.053612 -0.000004  0.005941  0.000007 -0.014926
  3H   2s         0.000127  0.081067 -0.000112  0.008804 -0.000106 -0.022985
  3H   3s         0.000014  0.041766 -0.000063  0.008252 -0.000042 -0.032155
  3H   1pz        0.007720 -0.000243 -0.003753 -0.000022 -0.004148  0.000050
  3H   1px        0.000125  0.001846 -0.000065  0.000112 -0.000072  0.002822
  3H   1py        0.000324  0.005806 -0.000164  0.000607 -0.000178 -0.002801
  4Ag  1s         0.000004 -0.001301  0.000001  0.000420 -0.000000 -0.005322
  4Ag  2s        -0.000015  0.004941 -0.000004 -0.001607  0.000000  0.020381
  4Ag  3s         0.000027 -0.008559  0.000008  0.003214 -0.000000 -0.039555
  4Ag  4s         0.000013 -0.003989 -0.000001  0.000300  0.000000 -0.007292
  4Ag  5s        -0.000050  0.016680 -0.000032 -0.002087 -0.000033  0.035275
  4Ag  6s         0.000020 -0.010275 -0.000005 -0.001181 -0.000022  0.013594
  4Ag  1pz       -0.014193  0.000023  0.009727  0.000026  0.015642 -0.000805
  4Ag  1px       -0.000241 -0.000069  0.000150  0.001061  0.000240  0.038642
  4Ag  1py       -0.000571 -0.000589  0.000374 -0.001314  0.000617  0.004542
  4Ag  2pz       -0.000848 -0.000084 -0.001890 -0.000023 -0.002479  0.000091
  4Ag  2px       -0.000002 -0.001373 -0.000025 -0.000244 -0.000034 -0.004821
  4Ag  2py       -0.000027  0.002755 -0.000063  0.000752 -0.000105 -0.000079
  4Ag  3pz        0.013991  0.000232 -0.009721  0.000143 -0.017816 -0.000361
  4Ag  3px        0.000257 -0.000286 -0.000145 -0.004245 -0.000259 -0.024943
  4Ag  3py        0.000564 -0.005842 -0.000376 -0.001731 -0.000661  0.018929
  4Ag  4pz        0.005556 -0.000428 -0.003174 -0.000042 -0.005256  0.000461
  4Ag  4px        0.000098  0.009677 -0.000049 -0.000311 -0.000075 -0.018629
  4Ag  4py        0.000196  0.007214 -0.000112  0.001161 -0.000195 -0.004216
  4Ag  1dz2       0.020668 -0.176802  0.023084 -0.567960  0.032354  0.125215
  4Ag  1dxz      -0.125833  0.001623 -0.589029 -0.009032  0.201723  0.027166
  4Ag  1dyz      -0.252015 -0.032616 -0.102374 -0.027158 -0.561574  0.006902
  4Ag  1dx2y2     0.007899 -0.508800 -0.005250  0.186807  0.025293 -0.246912
  4Ag  1dxy      -0.009095  0.036815 -0.024738 -0.243770 -0.001065 -0.502876
  4Ag  2dz2       0.012249 -0.103619  0.013408 -0.328074  0.018717  0.073152
  4Ag  2dxz      -0.075109  0.000854 -0.340654 -0.005231  0.116522  0.015672
  4Ag  2dyz      -0.149051 -0.019124 -0.059939 -0.015678 -0.324835  0.004124
  4Ag  2dx2y2     0.004667 -0.297388 -0.003008  0.108263  0.014619 -0.140169
  4Ag  2dxy      -0.005427  0.023823 -0.014325 -0.140482 -0.000625 -0.290500
  4Ag  3dz2       0.005884 -0.049524  0.006172 -0.152245  0.008630  0.040538
  4Ag  3dxz      -0.034057  0.000510 -0.158032 -0.002483  0.051853  0.007751
  4Ag  3dyz      -0.072174 -0.008990 -0.027199 -0.007361 -0.148816  0.002611
  4Ag  3dx2y2     0.002282 -0.139749 -0.001414  0.048778  0.006684 -0.062765
  4Ag  3dxy      -0.002541  0.007977 -0.006633 -0.063322 -0.000362 -0.142963
  4Ag  1f0       -0.000365  0.000147  0.001761  0.000365  0.002568 -0.000183
  4Ag  1f+1      -0.000035 -0.000088  0.000328 -0.001276  0.000020  0.002324
  4Ag  1f-1      -0.000046 -0.001472  0.000227 -0.003273  0.000514  0.000963
  4Ag  1f+2      -0.000015  0.000240 -0.000706  0.000093  0.004231  0.000182
  4Ag  1f-2       0.000372 -0.000031 -0.003848 -0.000058 -0.000362  0.000463
  4Ag  1f+3       0.000019  0.000894 -0.000174 -0.002373 -0.000102 -0.003949
  4Ag  1f-3      -0.000007  0.002695  0.000107 -0.000676 -0.000194  0.005380
                     18        19        20        21        22        23   
                  -0.28663  -0.27768  -0.25497  -0.11279  -0.00251   0.00834
                   2.00000   2.00000   2.00000   0.00000   0.00000   0.00000
                  --------  --------  --------  --------  --------  --------
  0C   1s         0.003544  0.000023  0.002648 -0.003592 -0.000001 -0.004962
  0C   2s         0.007573  0.000063  0.005221 -0.008058 -0.000001 -0.011106
  0C   3s        -0.012508  0.000028  0.000683  0.015483  0.000073  0.017447
  0C   4s        -0.004490 -0.000892 -0.044743  0.017494 -0.000234  0.081109
  0C   5s         0.029066  0.000194  0.008752  0.088120  0.000980  0.127264
  0C   1pz       -0.003357  0.025711 -0.000978 -0.000971 -0.155578 -0.000990
  0C   1px        0.055285  0.000565 -0.008295 -0.008091 -0.002519 -0.025122
  0C   1py        0.059715  0.001133  0.027739  0.027738 -0.006013  0.040903
  0C   2pz       -0.002455  0.019250  0.000128 -0.001045 -0.144972 -0.000440
  0C   2px        0.021137  0.000402  0.039646 -0.012873 -0.002812  0.017281
  0C   2py        0.051856  0.000459 -0.016642  0.032877 -0.005752  0.010166
  0C   3pz       -0.001853  0.014813  0.001547  0.000547 -0.225838 -0.005342
  0C   3px        0.009601  0.000578  0.067314 -0.036616 -0.004031  0.123722
  0C   3py        0.044960  0.000713 -0.065997  0.000302 -0.009127  0.094572
  0C   1dz2      -0.002255  0.000331 -0.001046  0.000340 -0.000179  0.000370
  0C   1dxz       0.000638  0.020284  0.001028  0.000228  0.005778 -0.000144
  0C   1dyz       0.000762 -0.012694 -0.000304  0.000383  0.000229 -0.000073
  0C   1dx2y2     0.012458  0.000859 -0.015755  0.005910  0.000072 -0.000594
  0C   1dxy      -0.024369  0.000541 -0.021647 -0.007951  0.000226  0.004086
  0C   2dz2      -0.009921  0.000572  0.000919 -0.001761 -0.001077 -0.006888
  0C   2dxz       0.001016  0.036758  0.001055  0.000279  0.015554 -0.000655
  0C   2dyz       0.000506 -0.023244  0.000054  0.000398  0.010924  0.000657
  0C   2dx2y2     0.012264  0.001475 -0.011376  0.007124 -0.000347  0.027191
  0C   2dxy      -0.040437  0.000942 -0.022640 -0.012458  0.001002 -0.000780
  0C   1f0        0.000018  0.000430 -0.000110 -0.000012  0.000148  0.000013
  0C   1f+1       0.000655 -0.000412 -0.001224  0.000586  0.000018 -0.001918
  0C   1f-1      -0.000547  0.000379  0.001338 -0.000241  0.000113  0.000594
  0C   1f+2      -0.000083  0.006383  0.000459 -0.000073  0.001264 -0.000101
  0C   1f-2       0.000142  0.004011  0.000105 -0.000004 -0.000161 -0.000030
  0C   1f+3      -0.003075  0.000137  0.001012 -0.000206 -0.000001 -0.001499
  0C   1f-3      -0.000946 -0.000353  0.011504 -0.001639 -0.000069  0.000503
  1O   1s        -0.003898 -0.000009  0.001182  0.000904 -0.000002 -0.006618
  1O   2s        -0.009460 -0.000020  0.003071  0.002141 -0.000001 -0.016180
  1O   3s         0.016517  0.000004 -0.007246 -0.002865 -0.000063  0.029127
  1O   4s         0.019868  0.000214  0.001843 -0.008217  0.000376  0.029843
  1O   5s        -0.011569 -0.000164 -0.073247  0.001040  0.000216 -0.073355
  1O   1pz        0.008403  0.284958  0.013586  0.002522  0.085965 -0.001903
  1O   1px       -0.091618  0.004467  0.038884 -0.025821  0.001417  0.029807
  1O   1py       -0.195146  0.009918 -0.379022 -0.053446  0.003366  0.032898
  1O   2pz        0.006981  0.238689  0.011345  0.002108  0.067683 -0.001473
  1O   2px       -0.071969  0.003673  0.038268 -0.021236  0.000892  0.031977
  1O   2py       -0.163370  0.008342 -0.319524 -0.044463  0.002591  0.022145
  1O   3pz        0.005221  0.179896  0.008266  0.002006  0.123035 -0.003521
  1O   3px       -0.044066  0.002796  0.038473 -0.016494  0.001969  0.106497
  1O   3py       -0.128233  0.006268 -0.239023 -0.043735  0.004908  0.040037
  1O   1dz2      -0.000657  0.000107  0.000265 -0.000139 -0.000081  0.000161
  1O   1dxz      -0.000122 -0.003936 -0.000142 -0.000024  0.001918  0.000037
  1O   1dyz       0.000008 -0.000075 -0.000075 -0.000004  0.000355  0.000047
  1O   1dx2y2     0.002199 -0.000058 -0.000570  0.000323  0.000018  0.000428
  1O   1dxy       0.001982 -0.000137  0.004131  0.000391  0.000079 -0.001040
  1O   2dz2      -0.000317  0.000417  0.002210 -0.000051 -0.000341  0.003900
  1O   2dxz      -0.000321 -0.014135 -0.000296 -0.000121  0.005694  0.000433
  1O   2dyz       0.000134  0.000132 -0.000151 -0.000022  0.002616  0.000189
  1O   2dx2y2     0.006291 -0.000187 -0.003213  0.000518  0.000031 -0.004386
  1O   2dxy       0.006681 -0.000561  0.012675  0.002705  0.000272 -0.006874
  1O   1f0       -0.000030 -0.001059  0.000016 -0.000005  0.000672  0.000021
  1O   1f+1       0.000206 -0.000125  0.000060 -0.000078  0.000051 -0.000133
  1O   1f-1       0.000114  0.000053 -0.000298  0.000052  0.000018 -0.000179
  1O   1f+2       0.000081  0.002568  0.000105  0.000032 -0.000812 -0.000057
  1O   1f-2       0.000022  0.000356  0.000096  0.000003  0.000028 -0.000015
  1O   1f+3       0.000864 -0.000037 -0.000608  0.000215  0.000017 -0.000457
  1O   1f-3       0.001710 -0.000128  0.002554  0.000687  0.000038 -0.001174
  2O   1s        -0.006703 -0.000037 -0.003349  0.010993  0.000006  0.007808
  2O   2s        -0.016552 -0.000068 -0.008123  0.026498  0.000022  0.019478
  2O   3s         0.031006 -0.000071  0.012209 -0.042307 -0.000142 -0.039469
  2O   4s         0.032308  0.000696  0.012241 -0.057382  0.000433 -0.014964
  2O   5s        -0.033978  0.000083  0.134051 -0.154055 -0.000749 -0.120786
  2O   1pz        0.011353 -0.358747 -0.003463  0.005527 -0.008202 -0.000740
  2O   1px       -0.193236 -0.005692  0.284713 -0.083741 -0.000113  0.047401
  2O   1py       -0.189417 -0.014394 -0.014256 -0.106631 -0.000321 -0.002884
  2O   2pz        0.009685 -0.304036 -0.002848  0.004768 -0.002218 -0.000795
  2O   2px       -0.168807 -0.004901  0.251906 -0.077638 -0.000021  0.039440
  2O   2py       -0.163338 -0.012398 -0.014264 -0.091177 -0.000208  0.002936
  2O   3pz        0.006742 -0.255446 -0.002036  0.004708 -0.004940 -0.000494
  2O   3px       -0.153766 -0.004145  0.215974 -0.084313 -0.000105  0.058855
  2O   3py       -0.095070 -0.010523 -0.028107 -0.087194  0.000083 -0.016760
  2O   1dz2      -0.000859 -0.000212 -0.000548 -0.001039 -0.000173 -0.000594
  2O   1dxz       0.000103 -0.001109  0.000033  0.000053 -0.000538  0.000043
  2O   1dyz      -0.000134  0.002762 -0.000072 -0.000154  0.002671 -0.000082
  2O   1dx2y2    -0.002763 -0.000070  0.000856 -0.002118 -0.000121 -0.000980
  2O   1dxy       0.000059  0.000133 -0.002535  0.000434  0.000015 -0.000979
  2O   2dz2       0.005469  0.000014 -0.007254  0.001639 -0.001040 -0.004078
  2O   2dxz       0.000387 -0.011355 -0.000023  0.000106 -0.000054  0.000323
  2O   2dyz       0.000181  0.004313 -0.000175 -0.000010  0.015737 -0.000285
  2O   2dx2y2    -0.005821 -0.000449  0.003428 -0.004366 -0.000609 -0.005024
  2O   2dxy      -0.004306 -0.000580 -0.005502 -0.001537  0.000255 -0.010021
  2O   1f0       -0.000151  0.002248  0.000083 -0.000072  0.000700  0.000001
  2O   1f+1       0.000649 -0.000234 -0.000622  0.000377 -0.000074 -0.000261
  2O   1f-1       0.001037  0.000410  0.000097  0.000608  0.000067  0.000271
  2O   1f+2      -0.000145  0.002390  0.000074 -0.000071  0.000750  0.000049
  2O   1f-2       0.000122  0.001049 -0.000198  0.000074  0.001403 -0.000030
  2O   1f+3      -0.000739  0.000078  0.002589 -0.000340  0.000056  0.000807
  2O   1f-3      -0.001792 -0.000197 -0.000192 -0.001070 -0.000064  0.000923
  3H   1s        -0.087572 -0.000267 -0.036047 -0.028707 -0.000021  0.003443
  3H   2s        -0.150925 -0.000476 -0.062465 -0.056572 -0.000444  0.010847
  3H   3s        -0.088581 -0.000229 -0.073499 -0.103844 -0.000593  0.100678
  3H   1pz        0.000300  0.000842  0.000121 -0.000022 -0.009770  0.000034
  3H   1px       -0.003812  0.000005  0.003154 -0.001400 -0.000190 -0.002430
  3H   1py       -0.006525  0.000017 -0.004431  0.001019 -0.000438  0.000613
  4Ag  1s         0.029818  0.000053 -0.008449 -0.042985  0.000002  0.002169
  4Ag  2s        -0.114384 -0.000202  0.032328  0.165768 -0.000007 -0.008437
  4Ag  3s         0.214538  0.000377 -0.063391 -0.299596  0.000020  0.014514
  4Ag  4s         0.072020  0.000129 -0.011633 -0.161444 -0.000020  0.011881
  4Ag  5s        -0.333610 -0.000492  0.077248  0.617663 -0.000004 -0.057064
  4Ag  6s        -0.059884 -0.000175 -0.019495  0.429636  0.000061 -0.018188
  4Ag  1pz        0.003163  0.040672 -0.001563  0.005906 -0.168251  0.000067
  4Ag  1px       -0.025786  0.000651  0.012899 -0.057029 -0.002647  0.159097
  4Ag  1py       -0.072449  0.001496  0.032506 -0.127588 -0.006588 -0.065799
  4Ag  2pz       -0.000195 -0.002550  0.000253  0.000083 -0.006773  0.000103
  4Ag  2px        0.002617 -0.000040 -0.000290  0.000373 -0.000091  0.003134
  4Ag  2py        0.004026 -0.000120 -0.006336 -0.002525 -0.000259 -0.004252
  4Ag  3pz       -0.001954 -0.045185  0.000060 -0.008394  0.270299 -0.000561
  4Ag  3px        0.006895 -0.000880 -0.007667  0.073583  0.004236 -0.241827
  4Ag  3py        0.049496 -0.001735  0.004813  0.185116  0.010524  0.112549
  4Ag  4pz       -0.000662 -0.019471 -0.000315 -0.008805  0.784611 -0.002072
  4Ag  4px       -0.008163 -0.000370  0.001306  0.064075  0.012291 -0.799100
  4Ag  4py        0.020804 -0.000701  0.009123  0.199112  0.030669  0.377768
  4Ag  1dz2      -0.157887  0.014633  0.039989 -0.061533  0.002122  0.002822
  4Ag  1dxz      -0.008136 -0.124859  0.003237 -0.004088 -0.008665 -0.002008
  4Ag  1dyz      -0.020053 -0.167294  0.009551 -0.007360 -0.027921  0.000753
  4Ag  1dx2y2    -0.176316  0.004391  0.125733 -0.048267  0.000954  0.031249
  4Ag  1dxy       0.175523 -0.007555 -0.101195  0.080409 -0.000764  0.040474
  4Ag  2dz2      -0.088997  0.008041  0.020451 -0.032591  0.001688  0.001057
  4Ag  2dxz      -0.004510 -0.070140  0.001810 -0.002114 -0.007474 -0.001508
  4Ag  2dyz      -0.011300 -0.091476  0.005128 -0.003808 -0.022055  0.000334
  4Ag  2dx2y2    -0.100015  0.002347  0.068055 -0.023820  0.000730  0.019871
  4Ag  2dxy       0.097036 -0.004198 -0.056800  0.041007 -0.000630  0.032052
  4Ag  3dz2      -0.048704  0.003943  0.025687 -0.032225 -0.002115  0.001710
  4Ag  3dxz      -0.002959 -0.029034  0.001330 -0.002415  0.010512  0.001562
  4Ag  3dyz      -0.006219 -0.047449  0.004077 -0.004338  0.026916  0.000301
  4Ag  3dx2y2    -0.050832  0.001373  0.044461 -0.033452 -0.000905 -0.009663
  4Ag  3dxy       0.064010 -0.001777 -0.033421  0.051743  0.000846 -0.036771
  4Ag  1f0        0.000512  0.003775 -0.000261  0.000340  0.000443 -0.000002
  4Ag  1f+1      -0.002005  0.000389  0.000830 -0.001555  0.000022 -0.000524
  4Ag  1f-1      -0.004563  0.000614  0.002291 -0.002892  0.000086  0.000253
  4Ag  1f+2       0.000414  0.002152 -0.000373  0.000221  0.000559 -0.000089
  4Ag  1f-2      -0.000471 -0.004730  0.000294 -0.000363 -0.000333 -0.000095
  4Ag  1f+3       0.005692 -0.000270 -0.004955  0.004011 -0.000025  0.000764
  4Ag  1f-3       0.001513 -0.000008 -0.003103  0.000001 -0.000021 -0.001601
                     24        25        26        27        28        29   
                   0.04042   0.05491   0.10063   0.11564   0.19045   0.20069
                   0.00000   0.00000   0.00000   0.00000   0.00000   0.00000
                  --------  --------  --------  --------  --------  --------
  0C   1s         0.000000 -0.002584 -0.013293 -0.037863 -0.006111  0.000055
  0C   2s         0.000016 -0.005613 -0.028146 -0.082724 -0.015863  0.000110
  0C   3s        -0.000341  0.026800  0.025864  0.141112  0.007404 -0.000424
  0C   4s         0.001031 -0.129960  0.194351  0.322632  0.381795  0.001772
  0C   5s        -0.006065 -0.604415  0.556106  1.999593  1.164131  0.007483
  0C   1pz        0.329385 -0.000218  0.002462  0.007560 -0.001099 -0.076288
  0C   1px        0.005330 -0.006606 -0.059701 -0.117179  0.026979 -0.000947
  0C   1py        0.012589  0.036048 -0.044527 -0.139639  0.026151 -0.003913
  0C   2pz        0.360730  0.002875  0.000591 -0.001431 -0.003477 -0.126319
  0C   2px        0.006571  0.000212 -0.105853  0.019398  0.490996  0.002908
  0C   2py        0.014553 -0.035955  0.019866  0.043774 -0.096033 -0.007338
  0C   3pz        0.525399  0.024982 -0.001564  0.054119  0.001312  0.038863
  0C   3px        0.009828 -0.230721 -0.131451 -0.743822  1.720827  0.020500
  0C   3py        0.021411 -0.524356  0.096966 -1.102901 -0.766125 -0.010249
  0C   1dz2       0.000806  0.004410  0.001244  0.010800  0.006533 -0.000199
  0C   1dxz      -0.011237  0.000251  0.000020  0.000302  0.000491 -0.000497
  0C   1dyz      -0.007464  0.000396  0.000282  0.000825  0.000198  0.002764
  0C   1dx2y2     0.000148  0.001246  0.004600  0.002521 -0.008809 -0.000258
  0C   1dxy      -0.000515 -0.004408 -0.001127 -0.000428 -0.005074 -0.000043
  0C   2dz2       0.002885  0.052799 -0.024478  0.040177 -0.028634  0.000234
  0C   2dxz      -0.031087 -0.000546  0.001665  0.005160 -0.006598 -0.017999
  0C   2dyz      -0.033920  0.004510 -0.000604  0.007579  0.003641 -0.002073
  0C   2dx2y2     0.001103  0.037113  0.001215  0.069091  0.182385  0.001553
  0C   2dxy      -0.002536  0.031406 -0.061761 -0.134073  0.083992 -0.000666
  0C   1f0        0.002722 -0.000423  0.000629  0.001506 -0.000067  0.001630
  0C   1f+1      -0.000177 -0.001134  0.000135 -0.009029 -0.013176  0.000019
  0C   1f-1      -0.000071  0.004760 -0.006583 -0.011910  0.005845  0.000184
  0C   1f+2      -0.002700 -0.000326  0.000345  0.000725 -0.001198 -0.000308
  0C   1f-2       0.004369 -0.000306  0.000010 -0.001134 -0.000489 -0.001571
  0C   1f+3       0.000194  0.006522 -0.003447  0.006564 -0.006843 -0.000128
  0C   1f-3       0.000073 -0.001957 -0.000004  0.001262 -0.008576 -0.000036
  1O   1s        -0.000034  0.008345 -0.006150  0.004980  0.022182  0.000200
  1O   2s        -0.000098  0.020025 -0.015485  0.011359  0.056991  0.000502
  1O   3s         0.000426 -0.029380  0.033707 -0.004122 -0.127303 -0.000958
  1O   4s        -0.001203 -0.086887 -0.007136 -0.129848  0.028693 -0.000777
  1O   5s         0.001853  0.166915  0.165632  0.037378 -2.320633 -0.019478
  1O   1pz       -0.261949  0.001672 -0.000299 -0.001590 -0.003977  0.017808
  1O   1px       -0.004285 -0.014038  0.013905  0.046393  0.008262  0.000415
  1O   1py       -0.010044 -0.056902  0.005231  0.019066  0.095062  0.001345
  1O   2pz       -0.206293  0.001615 -0.000015 -0.002098 -0.005164  0.029782
  1O   2px       -0.002939 -0.009181  0.010179  0.078195  0.149475  0.001918
  1O   2py       -0.007731 -0.054037 -0.000228  0.016188  0.059737  0.001299
[...]
  2O   1s        -0.004880 -0.013257 -0.017302  0.002647 -0.983635 -0.987756
  2O   2s        -0.018817 -0.041180 -0.004859 -0.002106  1.208867  1.218867
  2O   3s         0.277990  0.434895  0.432141 -0.017017 -1.215571 -1.238423
  2O   4s        -0.779149 -0.357677 -1.284115  0.113989  1.658234  1.553585
  2O   5s        -0.054706 -1.688684 -0.619674 -0.171306 -0.477066 -0.927460
  2O   1pz        0.007010  0.004292  0.002233 -0.000166 -0.001024 -0.000789
  2O   1px       -0.046217  0.237866  0.086169  0.004437 -0.036968 -0.046173
  2O   1py       -0.163130 -0.193912 -0.087994  0.002647  0.039504  0.036936
  2O   2pz       -0.027742 -0.011109 -0.018725  0.000534  0.006728  0.004030
  2O   2px        0.052945 -0.692799 -0.731148  0.008386  0.277424  0.206838
  2O   2py        0.688769  0.530260  0.741246 -0.016937 -0.271656 -0.177777
  2O   3pz       -0.017457 -0.007008 -0.007715  0.004311 -0.000556  0.004553
  2O   3px        0.205434 -0.654838 -0.098603 -0.099906  0.011019 -0.225456
  2O   3py        0.363483  0.416620  0.231383 -0.071945  0.010516 -0.032718
  2O   1dz2       0.018252 -0.455883 -0.009995 -0.006398 -0.005922  0.008054
  2O   1dxz       0.018415  0.011663  0.000357 -0.000397 -0.000739 -0.000513
  2O   1dyz      -0.027069 -0.013598 -0.000741 -0.000589 -0.000610  0.000478
  2O   1dx2y2    -0.775954  0.206320 -0.006251 -0.001338  0.000228  0.004235
  2O   1dxy      -0.168664 -0.658786 -0.013083  0.006461  0.014923  0.016537
  2O   2dz2       0.067675  0.578278  0.255362  0.015439 -0.023686 -0.052930
  2O   2dxz      -0.024984 -0.014678 -0.011435  0.001475  0.003791  0.002477
  2O   2dyz       0.037703  0.018760  0.011901  0.001719 -0.000088 -0.003015
  2O   2dx2y2     0.951514 -0.231012  0.021098  0.005466 -0.001276 -0.017466
  2O   2dxy       0.327326  0.821597  0.443441 -0.029565 -0.110293 -0.089595
  2O   1f0        0.013069  0.012800  0.005099 -0.000161 -0.000474 -0.001245
  2O   1f+1      -0.014375  0.215094  0.075697 -0.001326 -0.005002 -0.016691
  2O   1f-1      -0.130272 -0.210687 -0.080241  0.002151  0.006678  0.018892
  2O   1f+2       0.006499  0.007521 -0.000581 -0.000095  0.000416 -0.000783
  2O   1f-2       0.017631  0.012143  0.007114  0.000168 -0.000808 -0.000995
  2O   1f+3      -0.401689 -0.131484 -0.125885 -0.003124  0.018143  0.012245
  2O   1f-3       0.119273 -0.173495 -0.105524  0.002595  0.012812  0.011509
  3H   1s         0.117115  0.086239 -0.067950  0.014820  0.000057 -0.040041
  3H   2s         0.224342  0.012538 -0.242864  0.047503  0.000160 -0.079452
  3H   3s        -0.179837 -0.094947 -0.248497 -0.199017 -0.000154  0.196523
  3H   1pz       -0.001353 -0.002056  0.011121 -0.000606 -0.000014  0.000480
  3H   1px        0.009887  0.016295 -0.086489  0.004765  0.018025 -0.003665
  3H   1py        0.030002  0.047059 -0.249257  0.013735 -0.006245 -0.010713
  4Ag  1s         0.000427 -0.001404  0.001221  1.942405 -0.000021  0.007095
  4Ag  2s        -0.003637  0.006061 -0.000548 -3.433727  0.000043 -0.014718
  4Ag  3s         0.013346 -0.027722 -0.015268  2.226393 -0.000065  0.027843
  4Ag  4s        -0.002838  0.020614  0.037742 -1.417349  0.000122 -0.062217
  4Ag  5s        -0.113808  0.185946 -0.060925  0.684585 -0.000318  0.138148
  4Ag  6s         0.017944 -0.178429 -0.077054 -0.089028  0.000049 -0.048035
  4Ag  1pz        0.000795 -0.000157  0.000333  0.001269 -0.000002 -0.000300
  4Ag  1px       -0.006170  0.001290 -0.002582 -0.009842  0.002198  0.002358
  4Ag  1py       -0.017819  0.003586 -0.007459 -0.028323 -0.000763  0.006757
  4Ag  2pz       -0.001516  0.001601 -0.000043 -0.004743  0.000005  0.000372
  4Ag  2px        0.011853 -0.012604  0.000357  0.036789 -0.006215 -0.002952
  4Ag  2py        0.034122 -0.035912  0.001066  0.105904  0.002158 -0.008461
  4Ag  3pz       -0.001828  0.004699 -0.003088  0.017123 -0.000002  0.005645
  4Ag  3px        0.013872 -0.036135  0.023849 -0.132755 -0.016778 -0.043541
  4Ag  3py        0.040041 -0.104478  0.068793 -0.382366  0.006152 -0.125521
  4Ag  4pz        0.000476 -0.005139 -0.002397  0.000378  0.000012 -0.001660
  4Ag  4px       -0.003606  0.039919  0.018653 -0.002935 -0.014740  0.012865
  4Ag  4py       -0.009952  0.114691  0.053683 -0.008421  0.005067  0.037101
  4Ag  1dz2      -0.011434 -0.003737 -0.002197 -0.004234  0.000011 -0.001709
  4Ag  1dxz      -0.000353 -0.000152 -0.000091 -0.000182 -0.000116  0.000017
  4Ag  1dyz      -0.001004 -0.000431 -0.000259 -0.000520  0.000039  0.000061
  4Ag  1dx2y2    -0.004070 -0.003330 -0.002097 -0.004439  0.001791  0.003529
  4Ag  1dxy       0.003170  0.002610  0.001647  0.003512  0.002271 -0.002802
  4Ag  2dz2       0.024502 -0.015081  0.001321  0.025183 -0.000011 -0.001280
  4Ag  2dxz       0.000581 -0.000471  0.000121  0.001049 -0.000024 -0.000297
  4Ag  2dyz       0.001633 -0.001303  0.000357  0.002995  0.000008 -0.000884
  4Ag  2dx2y2    -0.001336 -0.005234  0.005208  0.024505  0.000364 -0.015624
  4Ag  2dxy       0.001089  0.004280 -0.004092 -0.019371  0.000418  0.012379
  4Ag  3dz2       0.005888  0.014173  0.034735 -0.128487  0.000117 -0.060544
  4Ag  3dxz      -0.000287  0.000057  0.001249 -0.005293 -0.000955 -0.001763
  4Ag  3dyz      -0.001032  0.000052  0.003538 -0.015114  0.000328 -0.004914
  4Ag  3dx2y2    -0.028155 -0.017672  0.022185 -0.121862  0.014907 -0.013993
  4Ag  3dxy       0.022310  0.013702 -0.017504  0.096223  0.018778  0.011024
  4Ag  1f0        0.000117  0.000348  0.000442 -0.000688 -0.000001 -0.000602
  4Ag  1f+1      -0.000349 -0.001098 -0.001389  0.002165  0.000845  0.001897
  4Ag  1f-1      -0.001060 -0.003166 -0.004007  0.006239 -0.000302  0.005452
  4Ag  1f+2      -0.001002  0.000274  0.000371 -0.000469  0.000147 -0.000335
  4Ag  1f-2       0.000760 -0.000216 -0.000294  0.000375  0.000188  0.000272
  4Ag  1f+3      -0.021776  0.002079  0.003056 -0.002532 -0.001850 -0.000698
  4Ag  1f-3      -0.013866  0.001354  0.001952 -0.001620  0.002910 -0.000435
                    138   
                 110.84889
                   0.00000
                  --------
  0C   1s         0.000257
  0C   2s        -0.000618
  0C   3s        -0.009160
  0C   4s         0.002210
  0C   5s         0.018856
  0C   1pz       -0.000039
  0C   1px        0.000310
  0C   1py        0.000904
  0C   2pz        0.000384
  0C   2px       -0.003008
  0C   2py       -0.008731
  0C   3pz       -0.003480
  0C   3px        0.027058
  0C   3py        0.077943
  0C   1dz2       0.001458
  0C   1dxz       0.000074
  0C   1dyz       0.000214
  0C   1dx2y2     0.002194
  0C   1dxy      -0.001730
  0C   2dz2      -0.022051
  0C   2dxz      -0.000698
  0C   2dyz      -0.001957
  0C   2dx2y2    -0.008455
  0C   2dxy       0.006685
  0C   1f0        0.000155
  0C   1f+1      -0.000489
  0C   1f-1      -0.001398
  0C   1f+2      -0.000119
  0C   1f-2       0.000086
  0C   1f+3      -0.003992
  0C   1f-3      -0.002558
  1O   1s         0.000367
  1O   2s        -0.000798
  1O   3s         0.006631
  1O   4s        -0.036804
  1O   5s         0.054665
  1O   1pz        0.000049
  1O   1px        0.000491
  1O   1py       -0.001424
  1O   2pz       -0.000166
  1O   2px        0.005398
  1O   2py        0.002346
  1O   3pz       -0.001313
  1O   3px       -0.010884
  1O   3py        0.036933
  1O   1dz2       0.001802
  1O   1dxz       0.000014
  1O   1dyz       0.000197
  1O   1dx2y2     0.001875
  1O   1dxy       0.000102
  1O   2dz2      -0.004626
  1O   2dxz       0.000034
  1O   2dyz      -0.000672
  1O   2dx2y2    -0.009079
  1O   2dxy      -0.000565
  1O   1f0        0.000052
  1O   1f+1      -0.000689
  1O   1f-1      -0.000289
  1O   1f+2       0.000053
  1O   1f-2      -0.000014
  1O   1f+3      -0.000327
  1O   1f-3       0.001126
  2O   1s         0.000367
  2O   2s        -0.000796
  2O   3s         0.006626
  2O   4s        -0.036789
  2O   5s         0.054616
  2O   1pz        0.000050
  2O   1px       -0.001270
  2O   1py       -0.000813
  2O   2pz       -0.000160
  2O   2px       -0.002777
  2O   2py        0.005174
  2O   3pz       -0.001339
  2O   3px        0.031430
  2O   3py        0.022194
  2O   1dz2       0.001806
  2O   1dxz       0.000114
  2O   1dyz       0.000165
  2O   1dx2y2     0.000333
  2O   1dxy      -0.001851
  2O   2dz2      -0.004635
  2O   2dxz      -0.000448
  2O   2dyz      -0.000513
  2O   2dx2y2    -0.001543
  2O   2dxy       0.008962
  2O   1f0        0.000051
  2O   1f+1       0.000358
  2O   1f-1      -0.000656
  2O   1f+2       0.000028
  2O   1f-2      -0.000050
  2O   1f+3       0.000882
  2O   1f-3      -0.000770
  3H   1s        -0.004334
  3H   2s        -0.014993
  3H   3s         0.060885
  3H   1pz        0.000187
  3H   1px       -0.001468
  3H   1py       -0.004232
  4Ag  1s        -2.111736
  4Ag  2s         1.629611
  4Ag  3s        -0.733844
  4Ag  4s         0.444485
  4Ag  5s        -0.211397
  4Ag  6s         0.027917
  4Ag  1pz       -0.000380
  4Ag  1px        0.002947
  4Ag  1py        0.008481
  4Ag  2pz        0.001441
  4Ag  2px       -0.011177
  4Ag  2py       -0.032177
  4Ag  3pz       -0.005263
  4Ag  3px        0.040805
  4Ag  3py        0.117532
  4Ag  4pz       -0.000112
  4Ag  4px        0.000874
  4Ag  4py        0.002508
  4Ag  1dz2       0.001289
  4Ag  1dxz       0.000055
  4Ag  1dyz       0.000158
  4Ag  1dx2y2     0.001335
  4Ag  1dxy      -0.001056
  4Ag  2dz2      -0.007713
  4Ag  2dxz      -0.000321
  4Ag  2dyz      -0.000915
  4Ag  2dx2y2    -0.007463
  4Ag  2dxy       0.005899
  4Ag  3dz2       0.039585
  4Ag  3dxz       0.001629
  4Ag  3dyz       0.004651
  4Ag  3dx2y2     0.037447
  4Ag  3dxy      -0.029567
  4Ag  1f0        0.000197
  4Ag  1f+1      -0.000621
  4Ag  1f-1      -0.001789
  4Ag  1f+2       0.000134
  4Ag  1f-2      -0.000107
  4Ag  1f+3       0.000724
  4Ag  1f-3       0.000463



                    ********************************
                    * MULLIKEN POPULATION ANALYSIS *
                    ********************************

-----------------------
MULLIKEN ATOMIC CHARGES
-----------------------
   0 C :    0.313710
   1 O :   -0.453245
   2 O :   -0.451048
   3 H :    0.097216
   4 Ag:    0.493368
Sum of atomic charges:    0.0000000

--------------------------------
MULLIKEN REDUCED ORBITAL CHARGES
--------------------------------
  0 C s       :     3.073268  s :     3.073268
      pz      :     0.749084  p :     2.361772
      px      :     0.767833
      py      :     0.844854
      dz2     :     0.004124  d :     0.229317
      dxz     :     0.065452
      dyz     :     0.017292
      dx2y2   :     0.077581
      dxy     :     0.064868
      f0      :     0.002987  f :     0.021934
      f+1     :     0.001604
      f-1     :     0.001133
      f+2     :     0.001962
      f-2     :     0.002538
      f+3     :     0.004988
      f-3     :     0.006723
  1 O s       :     3.858516  s :     3.858516
      pz      :     1.560059  p :     4.565071
      px      :     1.338281
      py      :     1.666731
      dz2     :     0.002588  d :     0.028077
      dxz     :     0.008799
      dyz     :     0.000366
      dx2y2   :     0.009463
      dxy     :     0.006860
      f0      :     0.000202  f :     0.001582
      f+1     :     0.000210
      f-1     :     0.000047
      f+2     :     0.000290
      f-2     :     0.000031
      f+3     :     0.000376
      f-3     :     0.000425
  2 O s       :     3.857955  s :     3.857955
      pz      :     1.560306  p :     4.563356
      px      :     1.589194
      py      :     1.413857
      dz2     :     0.002578  d :     0.028171
      dxz     :     0.005395
      dyz     :     0.003845
      dx2y2   :     0.006617
      dxy     :     0.009734
      f0      :     0.000203  f :     0.001566
      f+1     :     0.000116
      f-1     :     0.000139
      f+2     :     0.000008
      f-2     :     0.000310
      f+3     :     0.000413
      f-3     :     0.000378
  3 H s       :     0.882538  s :     0.882538
      pz      :     0.002685  p :     0.020246
      px      :     0.004173
      py      :     0.013388
  4 Ags       :     2.377568  s :     2.377568
      pz      :     2.013924  p :     6.142373
      px      :     2.060341
      py      :     2.068108
      dz2     :     1.989207  d :     9.985926
      dxz     :     2.002845
      dyz     :     2.001343
      dx2y2   :     1.995769
      dxy     :     1.996762
      f0      :     0.000037  f :     0.000765
      f+1     :     0.000053
      f-1     :     0.000098
      f+2     :     0.000052
      f-2     :     0.000060
      f+3     :     0.000177
      f-3     :     0.000289


                     *******************************
                     * LOEWDIN POPULATION ANALYSIS *
                     *******************************

----------------------
LOEWDIN ATOMIC CHARGES
----------------------
   0 C :   -0.579174
   1 O :    0.009923
   2 O :    0.010309
   3 H :    0.113466
   4 Ag:    0.445477

-------------------------------
LOEWDIN REDUCED ORBITAL CHARGES
-------------------------------
  0 C s       :     2.823014  s :     2.823014
      pz      :     0.736237  p :     2.700890
      px      :     0.979111
      py      :     0.985542
      dz2     :     0.058718  d :     0.907139
      dxz     :     0.195224
      dyz     :     0.042799
      dx2y2   :     0.315695
      dxy     :     0.294703
      f0      :     0.009457  f :     0.148131
      f+1     :     0.012489
      f-1     :     0.006623
      f+2     :     0.014268
      f-2     :     0.019585
      f+3     :     0.034931
      f-3     :     0.050779
  1 O s       :     3.409082  s :     3.409082
      pz      :     1.457993  p :     4.507501
      px      :     1.495064
      py      :     1.554443
      dz2     :     0.008683  d :     0.067970
      dxz     :     0.012869
      dyz     :     0.001006
      dx2y2   :     0.025854
      dxy     :     0.019557
      f0      :     0.000405  f :     0.005525
      f+1     :     0.000854
      f-1     :     0.000159
      f+2     :     0.000691
      f-2     :     0.000038
      f+3     :     0.001553
      f-3     :     0.001825
  2 O s       :     3.408968  s :     3.408968
      pz      :     1.457936  p :     4.507188
      px      :     1.578446
      py      :     1.470805
      dz2     :     0.008686  d :     0.068034
      dxz     :     0.007468
      dyz     :     0.006425
      dx2y2   :     0.019337
      dxy     :     0.026118
      f0      :     0.000405  f :     0.005502
      f+1     :     0.000499
      f-1     :     0.000515
      f+2     :     0.000025
      f-2     :     0.000700
      f+3     :     0.001682
      f-3     :     0.001677
  3 H s       :     0.830557  s :     0.830557
      pz      :     0.007590  p :     0.055977
      px      :     0.011385
      py      :     0.037002
  4 Ags       :     2.301510  s :     2.301510
      pz      :     2.020181  p :     6.210560
      px      :     2.101142
      py      :     2.089238
      dz2     :     1.998224  d :    10.041574
      dxz     :     2.006387
      dyz     :     2.003617
      dx2y2   :     2.013126
      dxy     :     2.020219
      f0      :     0.000034  f :     0.000879
      f+1     :     0.000062
      f-1     :     0.000086
      f+2     :     0.000055
      f-2     :     0.000065
      f+3     :     0.000215
      f-3     :     0.000361


                      *****************************
                      * MAYER POPULATION ANALYSIS *
                      *****************************

  NA   - Mulliken gross atomic population
  ZA   - Total nuclear charge
  QA   - Mulliken gross atomic charge
  VA   - Mayer's total valence
  BVA  - Mayer's bonded valence
  FA   - Mayer's free valence

  ATOM       NA         ZA         QA         VA         BVA        FA
  0 C      5.6863     6.0000     0.3137     4.0892     4.0892    -0.0000
  1 O      8.4532     8.0000    -0.4532     1.9496     1.9496     0.0000
  2 O      8.4510     8.0000    -0.4510     1.9469     1.9469     0.0000
  3 H      0.9028     1.0000     0.0972     0.9801     0.9801     0.0000
  4 Ag    18.5066    19.0000     0.4934     0.7952     0.7952    -0.0000

  Mayer bond orders larger than 0.100000
B(  0-C ,  1-O ) :   1.5565 B(  0-C ,  2-O ) :   1.5551 B(  0-C ,  3-H ) :   0.9449 
B(  1-O ,  4-Ag) :   0.3578 B(  2-O ,  4-Ag) :   0.3575 

-------
TIMINGS
-------

Total SCF time: 0 days 0 hours 0 min 8 sec 

Total time                  ....       8.772 sec
Sum of individual times     ....       8.584 sec  ( 97.8%)

Fock matrix formation       ....       8.246 sec  ( 94.0%)
  XC integration            ....       0.698 sec  (  8.5% of F)
    Basis function eval.    ....       0.222 sec  ( 31.8% of XC)
    Density eval.           ....       0.143 sec  ( 20.4% of XC)
    XC-Functional eval.     ....       0.064 sec  (  9.2% of XC)
    XC-Potential eval.      ....       0.241 sec  ( 34.5% of XC)
Diagonalization             ....       0.011 sec  (  0.1%)
Density matrix formation    ....       0.001 sec  (  0.0%)
Population analysis         ....       0.002 sec  (  0.0%)
Initial guess               ....       0.002 sec  (  0.0%)
Orbital Transformation      ....       0.000 sec  (  0.0%)
Orbital Orthonormalization  ....       0.001 sec  (  0.0%)
DIIS solution               ....       0.003 sec  (  0.0%)
Grid generation             ....       0.319 sec  (  3.6%)

-------------------------   --------------------
FINAL SINGLE POINT ENERGY      -336.028431433262
-------------------------   --------------------

                                *** OPTIMIZATION RUN DONE ***

                            ***************************************
                            *     ORCA property calculations      *
                            ***************************************

                                    ---------------------
                                    Active property flags
                                    ---------------------
   (+) Dipole Moment


------------------------------------------------------------------------------
                       ORCA ELECTRIC PROPERTIES CALCULATION
------------------------------------------------------------------------------

Dipole Moment Calculation                       ... on
Quadrupole Moment Calculation                   ... off
Polarizability Calculation                      ... off
GBWName                                         ... COO-Ag+.gbw
Electron density file                           ... COO-Ag+.scfp
The origin for moment calculation is the CENTER OF MASS  = (-4.774884,  3.426358 -0.171320)

-------------
DIPOLE MOMENT
-------------
                                X             Y             Z
Electronic contribution:     15.47368      44.53914      -1.99458
Nuclear contribution   :    -14.96125     -43.06175       1.92842
                        -----------------------------------------
Total Dipole Moment    :      0.51243       1.47740      -0.06616
                        -----------------------------------------
Magnitude (a.u.)       :      1.56514
Magnitude (Debye)      :      3.97828



--------------------
Rotational spectrum 
--------------------
 
Rotational constants in cm-1:     0.425440     0.105958     0.084831 
Rotational constants in MHz : 12754.381970  3176.540942  2543.155657 

 Dipole components along the rotational axes: 
x,y,z [a.u.] :     1.565142    -0.000993    -0.000015 
x,y,z [Debye]:     3.978275    -0.002525    -0.000039 

 

Timings for individual modules:

Sum of individual times         ...      517.765 sec (=   8.629 min)
GTO integral calculation        ...        4.578 sec (=   0.076 min)   0.9 %
SCF iterations                  ...      351.972 sec (=   5.866 min)  68.0 %
SCF Gradient evaluation         ...      160.939 sec (=   2.682 min)  31.1 %
Geometry relaxation             ...        0.277 sec (=   0.005 min)   0.1 %
                             ****ORCA TERMINATED NORMALLY****
TOTAL RUN TIME: 0 days 0 hours 8 minutes 37 seconds 981 msec
